
                                 *****************
                                 * O   R   C   A *
                                 *****************

                                            #,                                       
                                            ###                                      
                                            ####                                     
                                            #####                                    
                                            ######                                   
                                           ########,                                 
                                     ,,################,,,,,                         
                               ,,#################################,,                 
                          ,,##########################################,,             
                       ,#########################################, ''#####,          
                    ,#############################################,,   '####,        
                  ,##################################################,,,,####,       
                ,###########''''           ''''###############################       
              ,#####''   ,,,,##########,,,,          '''####'''          '####       
            ,##' ,,,,###########################,,,                        '##       
           ' ,,###''''                  '''############,,,                           
         ,,##''                                '''############,,,,        ,,,,,,###''
      ,#''                                            '''#######################'''  
     '                                                          ''''####''''         
             ,#######,   #######,   ,#######,      ##                                
            ,#'     '#,  ##    ##  ,#'     '#,    #''#        ,####,    ,#,          
            ##       ##  ##   ,#'  ##            #'  '#       #'       ,# #          
            ##       ##  #######   ##           ,######,      #####,      #          
            '#,     ,#'  ##    ##  '#,     ,#' ,#      #,     #,   #      #          
             '#######'   ##     ##  '#######'  #'      '#     '####' #    #          



                #########################################################
                #                        -***-                          #
                #          Department of theory and spectroscopy        #
                #                                                       #
                #                      Frank Neese                      #
                #                                                       #
                #     Directorship, Architecture, Infrastructure        #
                #                    SHARK, DRIVERS                     #
                #        Core code/Algorithms in most modules           #
                #                                                       #
                #        Max Planck Institute fuer Kohlenforschung      #
                #                Kaiser Wilhelm Platz 1                 #
                #                 D-45470 Muelheim/Ruhr                 #
                #                      Germany                          #
                #                                                       #
                #                  All rights reserved                  #
                #                        -***-                          #
                #########################################################


                         Program Version 6.1.0  -  RELEASE   -
                                (GIT: $679e74b$)
                          ($2025-06-10 18:02:51 +0200$)


 With contributions from (in alphabetic order):
[Max-Planck-Institut fuer Kohlenforschung]                               
  Daniel Aravena         : Magnetic Suceptibility                        
  Michael Atanasov       : Ab Initio Ligand Field Theory (pilot matlab implementation)
  Alexander A. Auer      : GIAO ZORA, VPT2 properties, NMR spectrum      
  Ute Becker             : All parallelization in ORCA, NUMFREQ, NUMCALC 
  Giovanni Bistoni       : ED, misc. LED, open-shell LED, HFLD           
  Dmytro Bykov           : pre 5.0 version of the SCF Hessian            
  Marcos Casanova-Páez   : Triplet and SCS-CIS(D). UHF-(DLPNO)-IP/EA/STEOM-CCSD. UHF-CVS-IP/STEOM-CCSD   
  Vijay G. Chilkuri      : MRCI spin determinant printing, contributions to CSF-ICE 
  Pauline Colinet        : FMM embedding                                 
  Dipayan Datta          : RHF DLPNO-CCSD density                        
  Achintya Kumar Dutta   : EOM-CC, STEOM-CC                              
  Nicolas Foglia         : Exact transition moments, OPA infrastructure, MCD improvements    
  Dmitry Ganyushin       : Spin-Orbit,Spin-Spin,Magnetic field MRCI      
  Miquel Garcia-Rates    : C-PCM and meta-GGA Hessian, CCSD/C-PCM, Gaussian charge scheme 
  Tiago L. C. Gouveia    : GS-ROHF, GS-ROCIS                             
  Yang Guo               : DLPNO-NEVPT2, F12-NEVPT2, CIM, IAO-localization        
  Andreas Hansen         : Spin unrestricted coupled pair/coupled cluster methods 
  Ingolf Harden          : AUTO-CI MPn and infrastructure                
  Benjamin Helmich-Paris : MC-RPA, TRAH-(SCF,CASSCF), AVAS, COSX integrals, SCF dyn. polar., MC-PDFT, srDFT 
  Lee Huntington         : MR-EOM, pCC                                   
  Robert Izsak           : Overlap fitted RIJCOSX, COSX-SCS-MP3, EOM     
  Riya Kayal             : Wick's Theorem for AUTO-CI, AUTO-CI UHF-CCSDT 
  Emily Kempfer          : AUTO-CI RHF CISDT and CCSDT, approximate NEVPT4
  Christian Kollmar      : KDIIS, OOCD, Brueckner-CCSD(T), CCSD density, CASPT2, CASPT2-K, improved NEVPT2 
  Axel Koslowski         : Symmetry handling                             
  Simone Kossmann        : meta-GGA functionals, TD-DFT gradient, OOMP2, (MP2 Hessian; deprecated post 5.0) 
  Lucas Lang             : DCDCAS, Hyperfine gauge corrections, ICE-SOC+SSC
  Marvin Lechner         : AUTO-CI (C++ implementation), FIC-MRCC        
  Spencer Leger          : CASSCF response                               
  Dagmar Lenk            : GEPOL surface, SMD, ORCA-2-JSON               
  Dimitrios Liakos       : Extrapolation schemes; Compound Job, Property file
  Dimitrios Manganas     : Further ROCIS development; embedding schemes. LFT, Crystal Embedding 
  Dimitrios Pantazis     : SARC Basis sets                               
  Anastasios Papadopoulos: AUTO-CI, single reference methods and gradients 
  Taras Petrenko         : pre 6.0 DFT Hessian and TD-DFT gradient,  ECA, NRVS 
  Petra Pikulova         : Analytic Raman intensities                    
  Peter Pinski           : DLPNO-MP2, DLPNO-MP2 Gradient                 
  Shashank Vittal Rao    : ES-AILFT, MagRelax                            
  Christoph Reimann      : Effective Core Potentials                     
  Marius Retegan         : Local ZFS, SOC                                
  Christoph Riplinger    : Optimizer, TS searches, QM/MM, DLPNO-CCSD(T), (RO)-DLPNO pert. Triples 
  Michael Roemelt        : Original ROCIS implementation, recursive CI coupling coefficients
  Masaaki Saitow         : Open-shell DLPNO-CCSD energy and density      
  Barbara Sandhoefer     : DKH picture change effects                    
  Yorick L. A. Schmerwitz: GMF and freeze-and-release deltaSCF, NEB S-IDPP initial path                    
  Kantharuban Sivalingam : CASSCF convergence/infrastructure, NEVPT2, NEVPT3, NEVPT4(SD), FIC-MRCI and CEPA variants
  Bernardo de Souza      : ESD, SOC TD-DFT                               
  Georgi L. Stoychev     : AutoAux, RI-MP2 NMR, DLPNO-MP2 response, X2C  
  Van Anh Tran           : RI-MP2 g-tensors                              
  Willem Van den Heuvel  : Paramagnetic NMR                              
  Zikuan Wang            : NOTCH, Electric field optimization            
  Frank Wennmohs         : Technical directorship and infrastructure     
  Hang Xu                : AUTO-CI-Response properties                   
                                                                         
[FACCTs GmbH]                                                            
  Markus Bursch, Nicolas Foglia, Miquel Garcia-Rates, Ingolf Harden, Hagen Neugebauer, Anastasios Papadopoulos, 
  Christoph Riplinger, Bernardo de Souza, Georgi L. Stoychev                                                    
                                                                 
  APM, various basis sets, CI-OPT, improved COSX, DLPNO-Multilevel,           
  DOCKER, DRACO, updates on ESD, Fragmentator, GOAT, IRC, LR-CPCM, L-BFGS, MBIS, meta-GGA TD-DFT gradient, ML-optimized integration grids, 
  MM, NACMEs, nearIR, NEB, NEB-TS, NL-DFT gradient (VV10), 2- and 3-layer-ONIOM, interface openCOSMO-RS, QMMM,   
  Crystal-QMMM, RESP, rigid body optimization, SF, symmetry and pop. for TD-DFT, various functionals, SOLVATOR                                   
                                                                         
[Other institutions]                                                     
  V. Asgeirsson          : NEB                                           
  Christoph Bannwarth    : sTDA-DFT, sTD-DFT, PBEh-3c, B97-3c, D3        
  Giovanni Bistoni       : ETS/NOCV, ADLD/ADEX, COVALED                  
  Martin Brehm           : Molecular dynamics                            
  Ronald Cardenas        : ETS/NOCV                                      
  Martina Colucci        : COVALED                                       
  Sebastian Ehlert       : rSCAN, r2SCAN, r2SCAN-3c, D4, dhf basis sets  
  Marvin Friede          : D4 for Fr, Ra, Ac-Lr                          
  Lars Goerigk           : TD-DFT with DH, B97 family of functionals     
  Stefan Grimme          : VdW corrections, initial TS optimization, DFT functionals, gCP, sTDA/sTD-DF 
  Waldemar Hujo          : DFT-NL                                        
  H. Jonsson             : NEB                                           
  Holger Kruse           : gCP                                           
  Marcel Mueller         : wB97X-3c, vDZP basis set                      
  Hagen Neugebauer       : wr2SCAN, Native XTB                           
  Gianluca Regni         : ADLD/ADEX                                     
  Tobias Risthaus        : pre 6.0 range-separated hybrid DFT and stability analysis
  Lukas Wittmann         : regularized MP2, r2SCAN double-hybrids, wr2SCAN        
                                                                         
We gratefully acknowledge several colleagues who have allowed us to      
interface, adapt or use parts of their codes:                            
  Ed Valeev, F. Pavosevic, A. Kumar             : LibInt (2-el integral package), F12 methods 
  Garnet Chan, S. Sharma, J. Yang, R. Olivares  : DMRG                   
  Ulf Ekstrom                                   : XCFun DFT Library      
  Mihaly Kallay                                 : mrcc  (arbitrary order and MRCC methods)
  Frank Weinhold                                : gennbo (NPA and NBO analysis)           
  Simon Mueller                                 : openCOSMO-RS                            
  Christopher J. Cramer and Donald G. Truhlar   : smd solvation model                     
  S Lehtola, MJT Oliveira, MAL Marques          : LibXC Library                           
  Liviu Ungur et al                             : ANISO software                          


 Your calculation uses the libint2 library for the computation of 2-el integrals
 For citations please refer to: http://libint.valeyev.net

 Your ORCA version has been built with support for libXC version: 7.0.0
 For citations please refer to: https://libxc.gitlab.io

 This ORCA versions uses:
   CBLAS   interface :  Fast vector & matrix operations
   LAPACKE interface :  Fast linear algebra routines
   SCALAPACK package :  Parallel linear algebra routines
   Shared memory     :  Shared parallel matrices
   BLAS/LAPACK       :  OpenBLAS 0.3.29  USE64BITINT DYNAMIC_ARCH NO_AFFINITY Zen SINGLE_THREADED
        Core in use  :  Zen
   Copyright (c) 2011-2014, The OpenBLAS Project


  ***********************************
  * Starting time: Fri Jun 27 08:02:51 2025
  * Host name:     exp-3-02
  * Process ID:    1179937
  * Working dir.:  /home/aweiland/comparing_theories/r2scan-3c
  ***********************************

NOTE: MaxCore=2000 MB was set to SCF,MP2,MDCI,CIPSI,MRCI,RASCI and CIS
      => If you want to overwrite this, your respective input block should be placed after the MaxCore statement
Your calculation utilizes the geometrical counterpoise correction gCP
Please cite in your paper:
H.Kruse, S. Grimme J.Chem.Phys., 136, (2012), 154101 
   

Your calculation utilizes the atom-pairwise dispersion correction
based on EEQ partial charges (D4)


================================================================================

----- Orbital basis set information -----
Your calculation utilizes the basis: def2-mTZVPP
   Stefan Grimme, Andreas Hansen, Sebastian Ehlert, and Jan-Michael Mewes 
   J. Chem. Phys. 154, 064103 (2021). DOI: 10.1063/5.0040021

----- AuxJ basis set information -----
Your calculation utilizes the basis: def2-mTZVPP/J
   Stefan Grimme, Andreas Hansen, Sebastian Ehlert, and Jan-Michael Mewes 
   J. Chem. Phys. 154, 000000 (2021). DOI: 10.1063/5.0040021

================================================================================
                                        WARNINGS
                       Please study these warnings very carefully!
================================================================================



WARNING: SCAN, rSCAN, or r2SCAN functional requested.
  ===> : libXC variant has now been activated.



WARNING: The environment variable RSH_COMMAND is not set!
  ===> : All Displacements for the Numerical Hessian or Gradient calculation
         will be started on localhost

WARNING: Geometry Optimization
  ===> : Switching off AutoStart
         For restart on a previous wavefunction, please use MOREAD

================================================================================
                                       INPUT FILE
================================================================================
NAME = r2_test.inp
|  1> ! r2SCAN-3c OPT NUMFREQ
|  2> 
|  3> %pal
|  4>   nprocs 8
|  5> end
|  6> 
|  7> %maxcore 2000
|  8> 
|  9> * xyz 0 1
| 10> O   -0.6052   0.5922   -0.7685
| 11> C   -1.7506   0.0461   -0.1664
| 12> O   -1.9967   -1.1790   -0.8061
| 13> C   -3.2141   -1.8356   -0.4735
| 14> C   -4.4050   -0.8816   -0.6227
| 15> O   -5.5604   -1.5339   -0.1464
| 16> H   -6.2695   -0.8802   -0.1450
| 17> C   -4.1799   0.4395   0.0845
| 18> O   -5.2839   1.2661   -0.2363
| 19> H   -5.0989   2.1440   0.1163
| 20> C   -2.8775   1.0416   -0.3900
| 21> O   -2.6576   2.2239   0.3354
| 22> H   -1.7941   2.5968   0.0924
| 23> H   -2.9389   1.2370   -1.4688
| 24> H   -4.1260   0.2761   1.1646
| 25> H   -4.5119   -0.6565   -1.6921
| 26> C   -3.1447   -2.5730   0.8504
| 27> O   -2.9643   -1.6622   1.9241
| 28> H   -3.1815   -2.1015   2.7496
| 29> H   -2.3028   -3.2712   0.7995
| 30> H   -4.0737   -3.1361   0.9644
| 31> H   -3.3224   -2.6121   -1.2341
| 32> H   -1.5842   -0.0926   0.9070
| 33> C   0.5561   0.6500   -0.0553
| 34> C   0.9750   2.1257   0.0869
| 35> O   0.1639   3.0227   0.1022
| 36> N   2.3067   2.3143   0.2535
| 37> C   3.2362   1.2668   0.2094
| 38> C   4.5500   1.4182   0.6223
| 39> C   5.4453   0.3665   0.5039
| 40> C   5.0086   -0.8382   -0.0236
| 41> C   3.6943   -1.0134   -0.4278
| 42> C   2.8106   0.0438   -0.3079
| 43> O   1.5334   -0.1022   -0.7528
| 44> H   3.3487   -1.9510   -0.8393
| 45> Cl  6.1203   -2.1560   -0.1745
| 46> H   6.4729   0.4785   0.8174
| 47> H   4.8777   2.3676   1.0274
| 48> H   2.6172   3.2601   0.4242
| 49> H   0.4368   0.2338   0.9560
| 50> *
| 51> 
| 52>                          ****END OF INPUT****
================================================================================

                       *****************************
                       * Geometry Optimization Run *
                       *****************************

Geometry optimization settings:
Update method            Update   .... BFGS
Choice of coordinates    CoordSys .... (2022) Redundant Internals
Initial Hessian          InHess   .... Almloef's Model
Max. no of cycles        MaxIter  .... 120

Convergence Tolerances:
Energy Change            TolE     ....  5.0000e-06 Eh
Max. Gradient            TolMAXG  ....  3.0000e-04 Eh/bohr
RMS Gradient             TolRMSG  ....  1.0000e-04 Eh/bohr
Max. Displacement        TolMAXD  ....  4.0000e-03 bohr
RMS Displacement         TolRMSD  ....  2.0000e-03 bohr
Strict Convergence                .... False

------------------------------------------------------------------------------
                        ORCA OPTIMIZATION COORDINATE SETUP
------------------------------------------------------------------------------

The optimization will be done in redundant internal coordinates (2022)
Making redundant internal coordinates   ...  (2022 redundants) done
Evaluating the initial hessian          ...  (Almloef) done
Evaluating the coordinates              ...  done
Calculating the B-matrix                .... done
Calculating the G-matrix                .... done
The number of degrees of freedom        ....  213

    -----------------------------------------------------------------
                    Redundant Internal Coordinates


    -----------------------------------------------------------------
         Definition                    Initial Value    Approx d2E/dq
    -----------------------------------------------------------------
      1. B(C   1,O   0)                  1.4045         0.530520   
      2. B(O   2,C   1)                  1.4038         0.531937   
      3. B(C   3,O   2)                  1.4226         0.496425   
      4. B(C   4,C   3)                  1.5332         0.369245   
      5. B(O   5,C   4)                  1.4097         0.520494   
      6. B(H   6,O   5)                  0.9644         0.511540   
      7. B(C   7,C   4)                  1.5153         0.394316   
      8. B(O   8,H   6)                  2.3635         0.010000   
      9. B(O   8,C   7)                  1.4160         0.508660   
     10. B(H   9,O   8)                  0.9640         0.512407   
     11. B(C  10,C   7)                  1.5113         0.400192   
     12. B(C  10,C   1)                  1.5202         0.387310   
     13. B(O  11,C  10)                  1.4044         0.530725   
     14. B(H  12,O  11)                  0.9715         0.498519   
     15. B(H  13,C  10)                  1.0981         0.349579   
     16. B(H  14,C   7)                  1.0937         0.355214   
     17. B(H  15,C   4)                  1.0981         0.349607   
     18. B(C  16,C   3)                  1.5170         0.391850   
     19. B(O  17,C  16)                  1.4195         0.502154   
     20. B(H  18,O  17)                  0.9600         0.519946   
     21. B(H  19,C  16)                  1.0949         0.353638   
     22. B(H  20,C  16)                  1.0923         0.357071   
     23. B(H  21,C   3)                  1.0923         0.357026   
     24. B(H  22,C   1)                  1.0950         0.353493   
     25. B(C  23,O   0)                  1.3640         0.615586   
     26. B(C  24,C  23)                  1.5406         0.359333   
     27. B(O  25,C  24)                  1.2094         1.086325   
     28. B(O  25,H  12)                  2.0038         0.011237   
     29. B(N  26,C  24)                  1.3553         0.635753   
     30. B(C  27,N  26)                  1.4011         0.537174   
     31. B(C  28,C  27)                  1.3855         0.635322   
     32. B(C  29,C  28)                  1.3862         0.633493   
     33. B(C  30,C  29)                  1.3857         0.634660   
     34. B(C  31,C  30)                  1.3862         0.633658   
     35. B(C  32,C  31)                  1.3831         0.640829   
     36. B(C  32,C  27)                  1.3944         0.614688   
     37. B(O  33,C  32)                  1.3603         0.624044   
     38. B(O  33,C  23)                  1.4168         0.507060   
     39. B(H  34,C  31)                  1.0807         0.372645   
     40. B(Cl 35,C  30)                  1.7307         0.401056   
     41. B(H  36,C  29)                  1.0802         0.373328   
     42. B(H  37,C  28)                  1.0830         0.369502   
     43. B(H  38,N  26)                  1.0100         0.432719   
     44. B(H  39,C  23)                  1.1001         0.347005   
     45. A(C   1,O   0,C  23)          119.1193         0.416116   
     46. A(O   2,C   1,H  22)          111.2715         0.340760   
     47. A(O   0,C   1,H  22)          110.2147         0.340608   
     48. A(O   0,C   1,O   2)          106.6747         0.405480   
     49. A(O   0,C   1,C  10)          106.6700         0.385992   
     50. A(O   2,C   1,C  10)          111.9943         0.386171   
     51. A(C  10,C   1,H  22)          109.8631         0.325257   
     52. A(C   1,O   2,C   3)          116.5051         0.400757   
     53. A(C   4,C   3,H  21)          107.3108         0.323244   
     54. A(O   2,C   3,C  16)          112.9073         0.382333   
     55. A(C   4,C   3,C  16)          115.0195         0.365603   
     56. A(O   2,C   3,H  21)          104.4862         0.337412   
     57. A(O   2,C   3,C   4)          110.7791         0.378415   
     58. A(C  16,C   3,H  21)          105.4659         0.326415   
     59. A(C   3,C   4,C   7)          112.4384         0.365996   
     60. A(C   7,C   4,H  15)          106.8739         0.325625   
     61. A(C   3,C   4,O   5)          108.4107         0.381533   
     62. A(O   5,C   4,H  15)          110.1280         0.338898   
     63. A(C   3,C   4,H  15)          107.3348         0.322133   
     64. A(O   5,C   4,C   7)          111.5605         0.385915   
     65. A(C   4,O   5,H   6)          106.8259         0.358206   
     66. A(O   8,C   7,C  10)          111.6051         0.385364   
     67. A(C   4,C   7,C  10)          109.1982         0.371088   
     68. A(C  10,C   7,H  14)          109.0939         0.327275   
     69. A(O   8,C   7,H  14)          110.4490         0.338497   
     70. A(C   4,C   7,H  14)          109.7530         0.326479   
     71. A(C   4,C   7,O   8)          106.7021         0.384373   
     72. A(C   7,O   8,H   9)          107.4059         0.356911   
     73. A(C   1,C  10,C   7)          109.3758         0.369945   
     74. A(O  11,C  10,H  13)          111.4937         0.339997   
     75. A(C   7,C  10,H  13)          109.3400         0.326415   
     76. A(C   1,C  10,H  13)          107.6072         0.324663   
     77. A(C   1,C  10,O  11)          111.0539         0.386018   
     78. A(C   7,C  10,O  11)          107.9485         0.388226   
     79. A(C  10,O  11,H  12)          109.4584         0.357822   
     80. A(H  19,C  16,H  20)          109.2736         0.289630   
     81. A(C   3,C  16,O  17)          110.7344         0.383096   
     82. A(C   3,C  16,H  19)          107.7323         0.325903   
     83. A(O  17,C  16,H  20)          111.0955         0.338065   
     84. A(C   3,C  16,H  20)          107.6236         0.326422   
     85. A(O  17,C  16,H  19)          110.2793         0.337521   
     86. A(C  16,O  17,H  18)          109.1507         0.357016   
     87. A(C  24,C  23,O  33)          111.4953         0.378021   
     88. A(O   0,C  23,O  33)          107.9000         0.412785   
     89. A(O   0,C  23,H  39)          111.8576         0.348133   
     90. A(O   0,C  23,C  24)          108.6839         0.390990   
     91. A(O  33,C  23,H  39)          109.0570         0.337004   
     92. A(C  24,C  23,H  39)          107.8807         0.320310   
     93. A(O  25,C  24,N  26)          123.6568         0.476543   
     94. A(C  23,C  24,N  26)          114.3198         0.393202   
     95. A(C  23,C  24,O  25)          121.9546         0.432419   
     96. A(C  24,N  26,C  27)          122.9529         0.419443   
     97. A(C  27,N  26,H  38)          120.0971         0.350058   
     98. A(C  24,N  26,H  38)          116.9475         0.360206   
     99. A(C  28,C  27,C  32)          119.7245         0.435303   
    100. A(N  26,C  27,C  32)          117.7034         0.419653   
    101. A(N  26,C  27,C  28)          122.5479         0.422133   
    102. A(C  27,C  28,C  29)          120.2707         0.437673   
    103. A(C  29,C  28,H  37)          120.1068         0.355750   
    104. A(C  27,C  28,H  37)          119.6183         0.355924   
    105. A(C  28,C  29,C  30)          119.2445         0.437591   
    106. A(C  30,C  29,H  36)          120.0278         0.356484   
    107. A(C  28,C  29,H  36)          120.7277         0.356372   
    108. A(C  29,C  30,Cl 35)          119.5196         0.421457   
    109. A(C  29,C  30,C  31)          121.3108         0.437611   
    110. A(C  31,C  30,Cl 35)          119.1687         0.421339   
    111. A(C  32,C  31,H  34)          119.4622         0.356959   
    112. A(C  30,C  31,H  34)          121.5949         0.356277   
    113. A(C  30,C  31,C  32)          118.9412         0.438375   
    114. A(C  31,C  32,O  33)          119.3072         0.434304   
    115. A(C  27,C  32,O  33)          120.1338         0.431064   
    116. A(C  27,C  32,C  31)          120.5004         0.435980   
    117. A(C  23,O  33,C  32)          115.4446         0.413786   
    118. D(H  22,C   1,O   0,C  23)     11.0210         0.022353   
    119. D(C  10,C   1,O   0,C  23)    130.2448         0.022353   
    120. D(O   2,C   1,O   0,C  23)   -109.9006         0.022353   
    121. D(C   3,O   2,C   1,H  22)     67.4724         0.022478   
    122. D(C   3,O   2,C   1,C  10)    -55.9276         0.022478   
    123. D(C   3,O   2,C   1,O   0)   -172.2832         0.022478   
    124. D(C  16,C   3,O   2,C   1)    -79.1476         0.019474   
    125. D(H  21,C   3,O   2,C   1)    166.7621         0.019474   
    126. D(C   4,C   3,O   2,C   1)     51.5012         0.019474   
    127. D(C   7,C   4,C   3,C  16)     79.5629         0.010902   
    128. D(C   7,C   4,C   3,O   2)    -49.9705         0.010902   
    129. D(O   5,C   4,C   3,H  21)     72.7313         0.010902   
    130. D(O   5,C   4,C   3,C  16)    -44.2504         0.010902   
    131. D(C   7,C   4,C   3,H  21)   -163.4554         0.010902   
    132. D(O   5,C   4,C   3,O   2)   -173.7839         0.010902   
    133. D(H   6,O   5,C   4,H  15)    -69.9090         0.021480   
    134. D(H   6,O   5,C   4,C   7)     48.5951         0.021480   
    135. D(H   6,O   5,C   4,C   3)    172.9328         0.021480   
    136. D(C  10,C   7,C   4,H  15)    -63.7995         0.012350   
    137. D(C  10,C   7,C   4,O   5)    175.7689         0.012350   
    138. D(C  10,C   7,C   4,C   3)     53.7247         0.012350   
    139. D(O   8,C   7,C   4,H  15)     56.9671         0.012350   
    140. D(O   8,C   7,C   4,O   5)    -63.4644         0.012350   
    141. D(O   8,C   7,C   4,C   3)    174.4913         0.012350   
    142. D(H   9,O   8,C   7,H  14)     67.7092         0.022222   
    143. D(H   9,O   8,C   7,C  10)    -53.8357         0.022222   
    144. D(H   9,O   8,C   7,C   4)   -173.0512         0.022222   
    145. D(O  11,C  10,C   1,O   0)    -67.8800         0.011933   
    146. D(C   7,C  10,C   1,H  22)    -67.4672         0.011933   
    147. D(C   7,C  10,C   1,O   2)     56.7224         0.011933   
    148. D(C   7,C  10,C   1,O   0)    173.0808         0.011933   
    149. D(O  11,C  10,C   7,O   8)     65.5702         0.012706   
    150. D(O  11,C  10,C   7,C   4)   -176.7057         0.012706   
    151. D(C   1,C  10,C   7,H  14)     64.1887         0.012706   
    152. D(C   1,C  10,C   7,O   8)   -173.4849         0.012706   
    153. D(C   1,C  10,C   7,C   4)    -55.7608         0.012706   
    154. D(O  11,C  10,C   1,H  22)     51.5720         0.011933   
    155. D(O  11,C  10,C   7,H  14)    -56.7562         0.012706   
    156. D(O  11,C  10,C   1,O   2)    175.7616         0.011933   
    157. D(H  12,O  11,C  10,H  13)    -63.8677         0.022371   
    158. D(H  12,O  11,C  10,C   7)    176.0205         0.022371   
    159. D(H  12,O  11,C  10,C   1)     56.1280         0.022371   
    160. D(H  19,C  16,C   3,H  21)     57.6917         0.012202   
    161. D(H  19,C  16,C   3,C   4)    175.7155         0.012202   
    162. D(H  19,C  16,C   3,O   2)    -55.8043         0.012202   
    163. D(O  17,C  16,C   3,C   4)    -63.6117         0.012202   
    164. D(O  17,C  16,C   3,O   2)     64.8685         0.012202   
    165. D(O  17,C  16,C   3,H  21)    178.3644         0.012202   
    166. D(H  18,O  17,C  16,H  20)     43.7980         0.019940   
    167. D(H  18,O  17,C  16,H  19)    -77.5150         0.019940   
    168. D(H  18,O  17,C  16,C   3)    163.3374         0.019940   
    169. D(H  39,C  23,O   0,C   1)      0.2009         0.030651   
    170. D(O  33,C  23,O   0,C   1)    120.1518         0.030651   
    171. D(C  24,C  23,O   0,C   1)   -118.8033         0.030651   
    172. D(N  26,C  24,C  23,O  33)    -35.0300         0.010000   
    173. D(N  26,C  24,C  23,O   0)   -153.8385         0.010000   
    174. D(O  25,C  24,C  23,H  39)    -92.3950         0.010000   
    175. D(O  25,C  24,C  23,O  33)    147.8840         0.010000   
    176. D(O  25,C  24,C  23,O   0)     29.0754         0.010000   
    177. D(H  38,N  26,C  24,O  25)      1.7466         0.032861   
    178. D(H  38,N  26,C  24,C  23)   -175.2831         0.032861   
    179. D(C  27,N  26,C  24,O  25)   -178.8299         0.032861   
    180. D(C  27,N  26,C  24,C  23)      4.1405         0.032861   
    181. D(C  32,C  27,N  26,H  38)   -166.4606         0.022944   
    182. D(C  32,C  27,N  26,C  24)     14.1333         0.022944   
    183. D(C  28,C  27,N  26,H  38)     11.7456         0.022944   
    184. D(C  28,C  27,N  26,C  24)   -167.6605         0.022944   
    185. D(H  37,C  28,C  27,C  32)   -179.7611         0.028017   
    186. D(H  37,C  28,C  27,N  26)      2.0677         0.028017   
    187. D(C  29,C  28,C  27,C  32)      0.9884         0.028017   
    188. D(C  29,C  28,C  27,N  26)   -177.1827         0.028017   
    189. D(H  36,C  29,C  28,H  37)      0.3450         0.027845   
    190. D(H  36,C  29,C  28,C  27)    179.5918         0.027845   
    191. D(C  30,C  29,C  28,H  37)   -179.6520         0.027845   
    192. D(C  30,C  29,C  28,C  27)     -0.4052         0.027845   
    193. D(Cl 35,C  30,C  29,H  36)      0.0090         0.027954   
    194. D(Cl 35,C  30,C  29,C  28)   -179.9940         0.027954   
    195. D(C  31,C  30,C  29,H  36)    179.6603         0.027954   
    196. D(C  31,C  30,C  29,C  28)     -0.3427         0.027954   
    197. D(H  34,C  31,C  30,Cl 35)     -0.3164         0.027861   
    198. D(H  34,C  31,C  30,C  29)   -179.9689         0.027861   
    199. D(C  32,C  31,C  30,Cl 35)   -179.8562         0.027861   
    200. D(C  32,C  31,C  30,C  29)      0.4913         0.027861   
    201. D(O  33,C  32,C  31,C  30)    177.3229         0.028537   
    202. D(C  27,C  32,C  31,H  34)   -179.4466         0.028537   
    203. D(C  27,C  32,C  31,C  30)      0.1032         0.028537   
    204. D(O  33,C  32,C  27,C  28)   -178.0347         0.026119   
    205. D(O  33,C  32,C  27,N  26)      0.2241         0.026119   
    206. D(C  31,C  32,C  27,C  28)     -0.8380         0.026119   
    207. D(O  33,C  32,C  31,H  34)     -2.2269         0.028537   
    208. D(C  31,C  32,C  27,N  26)    177.4208         0.026119   
    209. D(C  23,O  33,C  32,C  31)    149.5609         0.028599   
    210. D(C  23,O  33,C  32,C  27)    -33.2091         0.028599   
    211. D(C  32,O  33,C  23,H  39)    -69.5281         0.020345   
    212. D(C  32,O  33,C  23,C  24)     49.4949         0.020345   
    213. D(C  32,O  33,C  23,O   0)    168.7701         0.020345   
    -----------------------------------------------------------------

Number of atoms                         .... 40
Number of degrees of freedom            .... 213


         *************************************************************
         *                GEOMETRY OPTIMIZATION CYCLE   1            *
         *************************************************************
---------------------------------
CARTESIAN COORDINATES (ANGSTROEM)
---------------------------------
  O     -0.605200    0.592200   -0.768500
  C     -1.750600    0.046100   -0.166400
  O     -1.996700   -1.179000   -0.806100
  C     -3.214100   -1.835600   -0.473500
  C     -4.405000   -0.881600   -0.622700
  O     -5.560400   -1.533900   -0.146400
  H     -6.269500   -0.880200   -0.145000
  C     -4.179900    0.439500    0.084500
  O     -5.283900    1.266100   -0.236300
  H     -5.098900    2.144000    0.116300
  C     -2.877500    1.041600   -0.390000
  O     -2.657600    2.223900    0.335400
  H     -1.794100    2.596800    0.092400
  H     -2.938900    1.237000   -1.468800
  H     -4.126000    0.276100    1.164600
  H     -4.511900   -0.656500   -1.692100
  C     -3.144700   -2.573000    0.850400
  O     -2.964300   -1.662200    1.924100
  H     -3.181500   -2.101500    2.749600
  H     -2.302800   -3.271200    0.799500
  H     -4.073700   -3.136100    0.964400
  H     -3.322400   -2.612100   -1.234100
  H     -1.584200   -0.092600    0.907000
  C      0.556100    0.650000   -0.055300
  C      0.975000    2.125700    0.086900
  O      0.163900    3.022700    0.102200
  N      2.306700    2.314300    0.253500
  C      3.236200    1.266800    0.209400
  C      4.550000    1.418200    0.622300
  C      5.445300    0.366500    0.503900
  C      5.008600   -0.838200   -0.023600
  C      3.694300   -1.013400   -0.427800
  C      2.810600    0.043800   -0.307900
  O      1.533400   -0.102200   -0.752800
  H      3.348700   -1.951000   -0.839300
  Cl     6.120300   -2.156000   -0.174500
  H      6.472900    0.478500    0.817400
  H      4.877700    2.367600    1.027400
  H      2.617200    3.260100    0.424200
  H      0.436800    0.233800    0.956000

----------------------------
CARTESIAN COORDINATES (A.U.)
----------------------------
  NO LB      ZA    FRAG     MASS         X           Y           Z
   0 O     8.0000    0    15.999   -1.143662    1.119096   -1.452255
   1 C     6.0000    0    12.011   -3.308155    0.087116   -0.314450
   2 O     8.0000    0    15.999   -3.773216   -2.227987   -1.523308
   3 C     6.0000    0    12.011   -6.073769   -3.468781   -0.894785
   4 C     6.0000    0    12.011   -8.324244   -1.665983   -1.176732
   5 O     8.0000    0    15.999  -10.507633   -2.898651   -0.276656
   6 H     1.0000    0     1.008  -11.847638   -1.663337   -0.274010
   7 C     6.0000    0    12.011   -7.898866    0.830535    0.159682
   8 O     8.0000    0    15.999   -9.985124    2.392582   -0.446542
   9 H     1.0000    0     1.008   -9.635525    4.051573    0.219775
  10 C     6.0000    0    12.011   -5.437687    1.968339   -0.736993
  11 O     8.0000    0    15.999   -5.022136    4.202562    0.633814
  12 H     1.0000    0     1.008   -3.390358    4.907241    0.174611
  13 H     1.0000    0     1.008   -5.553716    2.337591   -2.775630
  14 H     1.0000    0     1.008   -7.797010    0.521753    2.200775
  15 H     1.0000    0     1.008   -8.526255   -1.240605   -3.197606
  16 C     6.0000    0    12.011   -5.942622   -4.862265    1.607023
  17 O     8.0000    0    15.999   -5.601715   -3.141103    3.636022
  18 H     1.0000    0     1.008   -6.012164   -3.971259    5.195991
  19 H     1.0000    0     1.008   -4.351661   -6.181672    1.510836
  20 H     1.0000    0     1.008   -7.698177   -5.926370    1.822452
  21 H     1.0000    0     1.008   -6.278426   -4.936154   -2.332111
  22 H     1.0000    0     1.008   -2.993704   -0.174989    1.713982
  23 C     6.0000    0    12.011    1.050877    1.228322   -0.104502
  24 C     6.0000    0    12.011    1.842483    4.016991    0.164217
  25 O     8.0000    0    15.999    0.309726    5.712075    0.193130
  26 N     7.0000    0    14.007    4.359031    4.373393    0.479046
  27 C     6.0000    0    12.011    6.115532    2.393905    0.395709
  28 C     6.0000    0    12.011    8.598254    2.680010    1.175977
  29 C     6.0000    0    12.011   10.290126    0.692585    0.952233
  30 C     6.0000    0    12.011    9.464882   -1.583968   -0.044598
  31 C     6.0000    0    12.011    6.981215   -1.915048   -0.808425
  32 C     6.0000    0    12.011    5.311264    0.082770   -0.581847
  33 O     8.0000    0    15.999    2.897706   -0.193130   -1.422586
  34 H     1.0000    0     1.008    6.328126   -3.686856   -1.586047
  35 Cl   17.0000    0    35.453   11.565691   -4.074250   -0.329757
  36 H     1.0000    0     1.008   12.232008    0.904234    1.544662
  37 H     1.0000    0     1.008    9.217517    4.474116    1.941505
  38 H     1.0000    0     1.008    4.945791    6.160696    0.801622
  39 H     1.0000    0     1.008    0.825432    0.441818    1.806578

--------------------------------
INTERNAL COORDINATES (ANGSTROEM)
--------------------------------
 O      0   0   0     0.000000000000     0.00000000     0.00000000
 C      1   0   0     1.404525108355     0.00000000     0.00000000
 O      2   1   0     1.403798885168   106.67470913     0.00000000
 C      3   2   1     1.422606438900   116.50505733   187.71678885
 C      4   3   2     1.533173000675   110.77912018    51.50122767
 O      5   4   3     1.409718461254   108.41067501   186.21610104
 H      6   5   4     0.964442045952   106.82585079   172.93278465
 C      5   4   3     1.515291080948   112.43840648   310.02945633
 O      8   5   4     1.415978884023   106.70207903   174.49134086
 H      9   8   5     0.963981415796   107.40590151   186.94884405
 C      8   5   4     1.511264510269   109.19818987    53.72467876
 O     11   8   5     1.404419616781   107.94849893   183.29431019
 H     12  11   8     0.971460580775   109.45837893   176.02048783
 H     11   8   5     1.098071290946   109.33998281    61.83681174
 H      8   5   4     1.093718784697   109.75300142   294.18185580
 H      5   4   3     1.098050080825   107.33480374    67.27988377
 C      4   3   2     1.516999119973   112.90728775   280.85241757
 O     17   4   3     1.419483177075   110.73443649    64.86849011
 H     18  17   4     0.960005510401   109.15065987   163.33742186
 H     17   4   3     1.094929066196   107.73234309   304.19572268
 H     17   4   3     1.092299688730   107.62356946   186.47331083
 H      4   3   2     1.092333969077   104.48621080   166.76205745
 H      2   1   3     1.095040734402   110.21471967   120.92165118
 C      1   2   3     1.364042803581   119.11926526   250.09938992
 C     24   1   2     1.540580585364   108.68385838   241.19673474
 O     25  24   1     1.209432222160   121.95462967    29.07544068
 N     25  24   1     1.355267652532   114.31976050   206.16145505
 C     27  25  24     1.401132152939   122.95286734     4.14049766
 C     28  27  25     1.385452565049   122.54794248   192.33948289
 C     29  28  27     1.386237187497   120.27069897   182.81727892
 C     30  29  28     1.385736349383   119.24452985   359.59480931
 C     31  30  29     1.386166357260   121.31081166   359.65729446
 C     32  31  30     1.383102866746   118.94123616     0.49127085
 O     33  32  31     1.360327846513   119.30722491   177.32285646
 H     32  31  30     1.080678199095   121.59493185   180.03107644
 Cl    31  30  29     1.730677480064   119.51957223   180.00599177
 H     30  29  28     1.080179619323   120.72768742   179.59182668
 H     29  28  27     1.082983684088   119.61825871     2.06773930
 H     27  25  24     1.009993257403   116.94749385   184.71693653
 H     24   1   2     1.100083005959   111.85757991     0.20089755

---------------------------
INTERNAL COORDINATES (A.U.)
---------------------------
 O      0   0   0     0.000000000000     0.00000000     0.00000000
 C      1   0   0     2.654167803007     0.00000000     0.00000000
 O      2   1   0     2.652795440072   106.67470913     0.00000000
 C      3   2   1     2.688336565874   116.50505733   187.71678885
 C      4   3   2     2.897277087199   110.77912018    51.50122767
 O      5   4   3     2.663981817703   108.41067501   186.21610104
 H      6   5   4     1.822531338888   106.82585079   172.93278465
 C      5   4   3     2.863485156165   112.43840648   310.02945633
 O      8   5   4     2.675812302220   106.70207903   174.49134086
 H      9   8   5     1.821660874044   107.40590151   186.94884405
 C      8   5   4     2.855876040324   109.19818987    53.72467876
 O     11   8   5     2.653968452823   107.94849893   183.29431019
 H     12  11   8     1.835794447565   109.45837893   176.02048783
 H     11   8   5     2.075054015409   109.33998281    61.83681174
 H      8   5   4     2.066828970603   109.75300142   294.18185580
 H      5   4   3     2.075013934090   107.33480374    67.27988377
 C      4   3   2     2.866712882149   112.90728775   280.85241757
 O     17   4   3     2.682434456381   110.73443649    64.86849011
 H     18  17   4     1.814147501713   109.15065987   163.33742186
 H     17   4   3     2.069116071180   107.73234309   304.19572268
 H     17   4   3     2.064147267867   107.62356946   186.47331083
 H      4   3   2     2.064212048335   104.48621080   166.76205745
 H      2   1   3     2.069327093508   110.21471967   120.92165118
 C      1   2   3     2.577667333713   119.11926526   250.09938992
 C     24   1   2     2.911275393574   108.68385838   241.19673474
 O     25  24   1     2.285495677423   121.95462967    29.07544068
 N     25  24   1     2.561084701448   114.31976050   206.16145505
 C     27  25  24     2.647756046487   122.95286734     4.14049766
 C     28  27  25     2.618125919481   122.54794248   192.33948289
 C     29  28  27     2.619608641027   120.27069897   182.81727892
 C     30  29  28     2.618662194153   119.24452985   359.59480931
 C     31  30  29     2.619474791277   121.31081166   359.65729446
 C     32  31  30     2.613685633191   118.94123616     0.49127085
 O     33  32  31     2.570647082257   119.30722491   177.32285646
 H     32  31  30     2.042185835189   121.59493185   180.03107644
 Cl    31  30  29     3.270506463466   119.51957223   180.00599177
 H     30  29  28     2.041243655963   120.72768742   179.59182668
 H     29  28  27     2.046542570431   119.61825871     2.06773930
 H     27  25  24     1.908610653599   116.94749385   184.71693653
 H     24   1   2     2.078855605844   111.85757991     0.20089755

---------------------
BASIS SET INFORMATION
---------------------
There are 5 groups of distinct atoms

 Group   1 Type O   : 11s6p2d contracted to 5s3p2d pattern {62111/411/11}
 Group   2 Type C   : 11s6p1d contracted to 5s3p1d pattern {62111/411/1}
 Group   3 Type H   : 4s1p contracted to 2s1p pattern {31/1}
 Group   4 Type N   : 11s6p2d contracted to 5s3p2d pattern {62111/411/11}
 Group   5 Type Cl  : 14s9p2d contracted to 5s4p2d pattern {73211/6111/11}

Atom   0O    basis set group =>   1
Atom   1C    basis set group =>   2
Atom   2O    basis set group =>   1
Atom   3C    basis set group =>   2
Atom   4C    basis set group =>   2
Atom   5O    basis set group =>   1
Atom   6H    basis set group =>   3
Atom   7C    basis set group =>   2
Atom   8O    basis set group =>   1
Atom   9H    basis set group =>   3
Atom  10C    basis set group =>   2
Atom  11O    basis set group =>   1
Atom  12H    basis set group =>   3
Atom  13H    basis set group =>   3
Atom  14H    basis set group =>   3
Atom  15H    basis set group =>   3
Atom  16C    basis set group =>   2
Atom  17O    basis set group =>   1
Atom  18H    basis set group =>   3
Atom  19H    basis set group =>   3
Atom  20H    basis set group =>   3
Atom  21H    basis set group =>   3
Atom  22H    basis set group =>   3
Atom  23C    basis set group =>   2
Atom  24C    basis set group =>   2
Atom  25O    basis set group =>   1
Atom  26N    basis set group =>   4
Atom  27C    basis set group =>   2
Atom  28C    basis set group =>   2
Atom  29C    basis set group =>   2
Atom  30C    basis set group =>   2
Atom  31C    basis set group =>   2
Atom  32C    basis set group =>   2
Atom  33O    basis set group =>   1
Atom  34H    basis set group =>   3
Atom  35Cl   basis set group =>   5
Atom  36H    basis set group =>   3
Atom  37H    basis set group =>   3
Atom  38H    basis set group =>   3
Atom  39H    basis set group =>   3
---------------------------------
AUXILIARY/J BASIS SET INFORMATION
---------------------------------
There are 5 groups of distinct atoms

 Group   1 Type O   : 8s3p3d contracted to 6s3p3d pattern {311111/111/111}
 Group   2 Type C   : 8s3p3d contracted to 6s3p3d pattern {311111/111/111}
 Group   3 Type H   : 5s2p1d contracted to 3s1p1d pattern {311/2/1}
 Group   4 Type N   : 8s3p3d contracted to 6s3p3d pattern {311111/111/111}
 Group   5 Type Cl  : 14s5p5d2f contracted to 8s4p3d1f pattern {71111111/2111/311/2}

Atom   0O    basis set group =>   1
Atom   1C    basis set group =>   2
Atom   2O    basis set group =>   1
Atom   3C    basis set group =>   2
Atom   4C    basis set group =>   2
Atom   5O    basis set group =>   1
Atom   6H    basis set group =>   3
Atom   7C    basis set group =>   2
Atom   8O    basis set group =>   1
Atom   9H    basis set group =>   3
Atom  10C    basis set group =>   2
Atom  11O    basis set group =>   1
Atom  12H    basis set group =>   3
Atom  13H    basis set group =>   3
Atom  14H    basis set group =>   3
Atom  15H    basis set group =>   3
Atom  16C    basis set group =>   2
Atom  17O    basis set group =>   1
Atom  18H    basis set group =>   3
Atom  19H    basis set group =>   3
Atom  20H    basis set group =>   3
Atom  21H    basis set group =>   3
Atom  22H    basis set group =>   3
Atom  23C    basis set group =>   2
Atom  24C    basis set group =>   2
Atom  25O    basis set group =>   1
Atom  26N    basis set group =>   4
Atom  27C    basis set group =>   2
Atom  28C    basis set group =>   2
Atom  29C    basis set group =>   2
Atom  30C    basis set group =>   2
Atom  31C    basis set group =>   2
Atom  32C    basis set group =>   2
Atom  33O    basis set group =>   1
Atom  34H    basis set group =>   3
Atom  35Cl   basis set group =>   5
Atom  36H    basis set group =>   3
Atom  37H    basis set group =>   3
Atom  38H    basis set group =>   3
Atom  39H    basis set group =>   3


           ************************************************************
           *        Program running with 8 parallel MPI-processes     *
           *              working on a common directory               *
           ************************************************************
------------------------------------------------------------------------------
                             ORCA STARTUP CALCULATIONS
                           -- RI-GTO INTEGRALS CHOSEN --
------------------------------------------------------------------------------
------------------------------------------------------------------------------
                   ___                                                        
                  /   \      - P O W E R E D   B Y -                         
                 /     \                                                     
                 |  |  |   _    _      __       _____    __    __             
                 |  |  |  | |  | |    /  \     |  _  \  |  |  /  |          
                  \  \/   | |  | |   /    \    | | | |  |  | /  /          
                 / \  \   | |__| |  /  /\  \   | |_| |  |  |/  /          
                |  |  |   |  __  | /  /__\  \  |    /   |      \           
                |  |  |   | |  | | |   __   |  |    \   |  |\   \          
                \     /   | |  | | |  |  |  |  | |\  \  |  | \   \       
                 \___/    |_|  |_| |__|  |__|  |_| \__\ |__|  \__/        
                                                                              
                      - O R C A' S   B I G   F R I E N D -                    
                                      &                                       
                       - I N T E G R A L  F E E D E R -                       
                                                                              
 v1 FN, 2020, v2 2021, v3 2022-2024                                           
------------------------------------------------------------------------------


----------------------
SHARK INTEGRAL PACKAGE
----------------------

Number of atoms                             ...     40
Number of basis functions                   ...    589
Number of shells                            ...    275
Maximum angular momentum                    ...      2
Integral batch strategy                     ... SHARK/LIBINT Hybrid
RI-J (if used) integral strategy            ... SPLIT-RIJ (Revised 2003 algorithm where possible)
Printlevel                                  ...      1
Contraction scheme used                     ... SEGMENTED contraction
Prescreening option                         ... SCHWARTZ
   Thresh                                   ... 2.500e-11
   Tcut                                     ... 2.500e-12
   Tpresel                                  ... 2.500e-12 
Coulomb Range Separation                    ... NOT USED
Exchange Range Separation                   ... NOT USED
Multipole approximations                    ... NOT USED
Finite Nucleus Model                        ... NOT USED
CABS basis                                  ... NOT available
Auxiliary Coulomb fitting basis             ... AVAILABLE
   # of basis functions in Aux-J            ...    908
   # of shells in Aux-J                     ...    372
   Maximum angular momentum in Aux-J        ...      3
Auxiliary J/K fitting basis                 ... NOT available
Auxiliary Correlation fitting basis         ... NOT available
Auxiliary 'external' fitting basis          ... NOT available

Checking pre-screening integrals            ... done (  0.0 sec) Dimension = 275
   => SHARK Basis and OBASIS are compatible. Storing Pre-screening
Shell pair information
Shell pair cut-off parameter TPreSel        ...   2.5e-12
Total number of shell pairs                 ...     37950
Shell pairs after pre-screening             ...     24733
Total number of primitive shell pairs       ...    140250
Primitive shell pairs kept                  ...     56731
          la=0 lb=0:   7049 shell pairs
          la=1 lb=0:   9006 shell pairs
          la=1 lb=1:   2878 shell pairs
          la=2 lb=0:   3289 shell pairs
          la=2 lb=1:   2109 shell pairs
          la=2 lb=2:    402 shell pairs

Checking whether 4 symmetric matrices of dimension 589 fit in memory
:Max Core in MB      =   2000.00
 MB in use           =     32.36
 MB left             =   1967.64
 MB needed           =      5.30
 Data fit in memory  = YES
Calculating RI/J V-Matrix + Cholesky decomp.... done (  0.3 sec)
Calculating Nuclear repulsion               ... done (  0.0 sec) ENN=   2327.019592173340 Eh

Diagonalization of the overlap matrix:
Smallest eigenvalue                        ... 2.059e-05
Time for diagonalization                   ...    0.051 sec
Threshold for overlap eigenvalues          ... 1.000e-07
Number of eigenvalues below threshold      ... 0
Time for construction of square roots      ...    0.084 sec
Total time needed                          ...    0.170 sec

-------------------
DFT GRID GENERATION
-------------------

General Integration Accuracy     IntAcc      ... 4.388
Radial Grid Type                 RadialGrid  ... OptM3 with GC (2021)
Angular Grid (max. ang.)         AngularGrid ... 4 (Lebedev-302)
Angular grid pruning method      GridPruning ... 4 (adaptive)
Weight generation scheme         WeightScheme... mBecke (2022)
Basis function cutoff            BFCut       ... 1.0000e-11
Integration weight cutoff        WCut        ... 1.0000e-14
Partially contracted basis set               ... off
Rotationally invariant grid construction     ... off
Angular grids for H and He will be reduced by one unit
Diffuse basis detected: some atoms will have their outermost
                        angular grid increased by 1.

Total number of grid points                  ...   197948
Total number of batches                      ...     3110
Average number of points per batch           ...       63
Average number of grid points per atom       ...     4949
Grids setup in   2.0 sec
Initializing property integral containers    ... done (  0.1 sec)

SHARK setup successfully completed in   3.8 seconds

Maximum memory used throughout the entire STARTUP-calculation: 71.3 MB


           ************************************************************
           *        Program running with 8 parallel MPI-processes     *
           *              working on a common directory               *
           ************************************************************
-------------------------------------------------------------------------------
                                 ORCA GUESS
                   Start orbitals & Density for SCF / CASSCF
-------------------------------------------------------------------------------

------------
SCF SETTINGS
------------
Hamiltonian:
 Density Functional     Method          .... DFT(GTOs)
  Functional kind                       .... Exchange
  Functional name                       .... Re-regularized SCAN exchange by Furness et al
  Functional family                     .... MGGA
  Functional refs                              
    [ 0] J. W. Furness, A. D. Kaplan, J. Ning, J. P. Perdew, and J. Sun.,  J. Phys. Chem. Lett. 11, 8208-8215 (2020), doi: 10.1021/acs.jpclett.0c02405
    [ 1] J. W. Furness, A. D. Kaplan, J. Ning, J. P. Perdew, and J. Sun.,  J. Phys. Chem. Lett. 11, 9248-9248 (2020), doi: 10.1021/acs.jpclett.0c03077
  Functional external parameters        .... 6
    Parameter  0 _c1        =  6.670000e-01 : c1 parameter        
    Parameter  1 _c2        =  8.000000e-01 : c2 parameter        
    Parameter  2 _d         =  1.240000e+00 : d parameter         
    Parameter  3 _k1        =  6.500000e-02 : k1 parameter        
    Parameter  4 _eta       =  1.000000e-03 : eta parameter       
    Parameter  5 _dp2       =  3.610000e-01 : dp2 parameter       
  Functional kind                       .... Correlation
  Functional name                       .... Re-regularized SCAN correlation by Furness et al
  Functional family                     .... MGGA
  Functional refs                              
    [ 0] J. W. Furness, A. D. Kaplan, J. Ning, J. P. Perdew, and J. Sun.,  J. Phys. Chem. Lett. 11, 8208-8215 (2020), doi: 10.1021/acs.jpclett.0c02405
    [ 1] J. W. Furness, A. D. Kaplan, J. Ning, J. P. Perdew, and J. Sun.,  J. Phys. Chem. Lett. 11, 9248-9248 (2020), doi: 10.1021/acs.jpclett.0c03077
  Functional external parameters        .... 1
    Parameter  0 _eta       =  1.000000e-03 : Regularization parameter
 Gradients option       PostSCFGGA      .... off
 RI-approximation to the Coulomb term is turned on
   Number of AuxJ basis functions       .... 908


General Settings:
 Integral files         IntName         .... r2_test
 Hartree-Fock type      HFTyp           .... RHF
 Total Charge           Charge          ....    0
 Multiplicity           Mult            ....    1
 Number of Electrons    NEL             ....  188
 Basis Dimension        Dim             ....  589
 Nuclear Repulsion      ENuc            ....   2327.0195921733 Eh

Convergence Acceleration:
 AO-DIIS                CNVDIIS         .... on
   Start iteration      DIISMaxIt       ....    12
   Startup error        DIISStart       ....  0.200000
   # of expansion vecs  DIISMaxEq       ....     5
   Bias factor          DIISBfac        ....   1.050
   Max. coefficient     DIISMaxC        ....  10.000
 MO-DIIS                CNVKDIIS        .... off
 Trust-Rad. Augm. Hess. CNVTRAH         .... auto
   Auto Start mean grad. ratio tolernc. ....  1.125000
   Auto Start start iteration           ....    50
   Auto Start num. interpolation iter.  ....    10
   Max. Number of Micro iterations      ....    24
   Max. Number of Macro iterations      .... Maxiter - #DIIS iter
   Number of Davidson start vectors     ....     2
   Converg. threshold    (grad. norm)   ....   1.000e-05
   Grad. Scal. Fac. for Micro threshold ....   0.100
   Minimum threshold for Micro iter.    ....   1.000e-02
   NR start threshold (gradient norm)   ....   1.000e-04
   Initial trust radius                 ....   0.400
   Minimum AH scaling param. (alpha)    ....   1.000
   Maximum AH scaling param. (alpha)    .... 1000.000
   Quad. conv. algorithm                .... NR
   White noise on init. David. guess    .... on
   Maximum white noise                  ....   0.010
   Pseudo random numbers                .... off
   Inactive MOs                         .... canonical
   Orbital update algorithm             .... Taylor
   Preconditioner                       .... Diag
   Full preconditioner red. dimension   ....   250
   COSX micro iterations for RIJONX calc.... off
 SOSCF                 CNVSOSCF           .... on
   Start iteration     SOSCFMaxIt         ....   150
   Startup grad/error  SOSCFStart         ....  0.003300
   Hessian update      SOSCFHessUp        .... L-BFGS
   Autom. constraints  SOSCFAutoConstrain .... off
 Level Shifting         CNVShift        .... on
   Level shift para.    LevelShift      ....    0.2500
   Turn off err/grad.   ShiftErr        ....    0.0010
 Zerner damping         CNVZerner       .... off
 Static damping         CNVDamp         .... on
   Fraction old density DampFac         ....    0.7000
   Max. Damping (<1)    DampMax         ....    0.9800
   Min. Damping (>=0)   DampMin         ....    0.0000
   Turn off err/grad.   DampErr         ....    0.1000

SCF Procedure:
 Maximum # iterations   MaxIter         ....   125
 SCF integral mode      SCFMode         .... Direct
   Integral package                     .... SHARK and LIBINT hybrid scheme
 Reset frequency        DirectResetFreq ....    20
 Integral Threshold     Thresh          ....  2.500e-11 Eh
 Primitive CutOff       TCut            ....  2.500e-12 Eh

Convergence Tolerance:
 Convergence Check Mode ConvCheckMode   .... Total+1el-Energy
 Convergence forced     ConvForced      .... 0
 Energy Change          TolE            ....  1.000e-08 Eh
 1-El. energy change                    ....  1.000e-05 Eh
 Orbital Gradient       TolG            ....  1.000e-05
 Orbital Rotation angle TolX            ....  1.000e-05
 DIIS Error             TolErr          ....  5.000e-07

------------------------------
INITIAL GUESS: MODEL POTENTIAL
------------------------------
Loading Hartree-Fock densities                     ... done
Calculating cut-offs                               ... done
Initializing the effective Hamiltonian             ... done
Setting up the integral package (SHARK)            ... done
Starting the Coulomb interaction                   ... done (   0.5 sec)
Making the grid                                    ... done (   0.7 sec)
Mapping shells                                     ... done
Starting the XC term evaluation                    ... done (   0.2 sec)
  promolecular density results
     # of electrons  =    187.989518229
     EX              =   -175.716440263
     EC              =     -6.532652142
     EX+EC           =   -182.249092404
Transforming the Hamiltonian                       ... done (   0.1 sec)
Diagonalizing the Hamiltonian                      ... done (   0.1 sec)
Back transforming the eigenvectors                 ... done (   0.1 sec)
Now organizing SCF variables                       ... done
                      ------------------
                      INITIAL GUESS DONE (   1.8 sec)
                      ------------------
             **** ENERGY FILE WAS UPDATED (r2_test.en.tmp) ****
Finished Guess after   3.0 sec
Maximum memory used throughout the entire GUESS-calculation: 43.3 MB


           ************************************************************
           *        Program running with 8 parallel MPI-processes     *
           *              working on a common directory               *
           ************************************************************

-------------------------------------------------------------------------------------------
                                      ORCA LEAN-SCF
                              memory conserving SCF solver
-------------------------------------------------------------------------------------------

----------------------------------------D-I-I-S--------------------------------------------
Iteration    Energy (Eh)           Delta-E    RMSDP     MaxDP     DIISErr   Damp  Time(sec)
-------------------------------------------------------------------------------------------
               ***  Starting incremental Fock matrix formation  ***
    1    -1659.1275067184569707     0.00e+00  7.50e-03  3.80e-01  2.72e-01  0.700   4.2
    2    -1659.3898992095823814    -2.62e-01  5.74e-03  2.88e-01  9.51e-02  0.700   4.2
                               ***Turning on AO-DIIS***
    3    -1659.4778035307272148    -8.79e-02  1.86e-03  4.50e-02  3.84e-02  0.700   3.3
    4    -1659.5355945511059872    -5.78e-02  3.08e-03  8.67e-02  1.79e-02  0.000   3.9
    5    -1659.6671343968537258    -1.32e-01  1.36e-03  6.16e-02  5.58e-03  0.000   3.6
    6    -1659.6677367969505212    -6.02e-04  4.67e-04  2.21e-02  4.84e-03  0.000   3.1
                              *** Initializing SOSCF ***
---------------------------------------S-O-S-C-F--------------------------------------
Iteration    Energy (Eh)           Delta-E    RMSDP     MaxDP     MaxGrad    Time(sec)
--------------------------------------------------------------------------------------
    7    -1659.6678060975768858    -6.93e-05  1.52e-04  5.42e-03  2.12e-03     3.6
               *** Restarting incremental Fock matrix formation ***
    8    -1659.6678181492429758    -1.21e-05  9.79e-05  3.37e-03  1.43e-04     3.5
    9    -1659.6678161416957664     2.01e-06  2.83e-05  5.10e-04  3.14e-04     3.2
   10    -1659.6678197920382445    -3.65e-06  1.97e-05  7.75e-04  7.50e-05     3.2
   11    -1659.6678195006852548     2.91e-07  1.01e-05  2.88e-04  8.66e-05     3.3
   12    -1659.6678199277625936    -4.27e-07  4.58e-06  2.36e-04  7.53e-06     3.3
   13    -1659.6678199141283585     1.36e-08  2.00e-06  6.62e-05  1.40e-05     3.4
   14    -1659.6678199308530566    -1.67e-08  4.03e-06  1.95e-04  4.96e-06     3.2
   15    -1659.6678199199732262     1.09e-08  2.22e-06  9.00e-05  6.18e-06     3.1
   16    -1659.6678199426714855    -2.27e-08  2.33e-06  5.18e-05  6.30e-07     3.5
                  *** Gradient check signals convergence ***

               *****************************************************
               *                     SUCCESS                       *
               *           SCF CONVERGED AFTER  16 CYCLES          *
               *****************************************************

             **** ENERGY FILE WAS UPDATED (r2_test.en.tmp) ****

----------------
TOTAL SCF ENERGY
----------------

Total Energy       :      -1659.66781994782559 Eh          -45161.85737 eV

Components:
Nuclear Repulsion  :       2327.01959217333979 Eh           63321.42230 eV
Electronic Energy  :      -3986.68741212116538 Eh         -108483.27967 eV
One Electron Energy:      -6904.65174308889618 Eh         -187885.12582 eV
Two Electron Energy:       2917.96433096773080 Eh           79401.84616 eV

Virial components:
Potential Energy   :      -3313.84880835264767 Eh          -90174.41045 eV
Kinetic Energy     :       1654.18098840482207 Eh           45012.55309 eV
Virial Ratio       :          2.00331694752960

DFT components:
N(Alpha)           :       94.000034214642 electrons
N(Beta)            :       94.000034214642 electrons
N(Total)           :      188.000068429285 electrons
E(X)               :     -179.291183788547 Eh       
E(C)               :       -6.388934827928 Eh       
E(XC)              :     -185.680118616475 Eh       

---------------
SCF CONVERGENCE
---------------

  Last Energy change         ...    2.2698e-08  Tolerance :   1.0000e-08
  Last MAX-Density change    ...    5.1840e-05  Tolerance :   1.0000e-07
  Last RMS-Density change    ...    2.3320e-06  Tolerance :   5.0000e-09
  Last DIIS Error            ...    2.1204e-03  Tolerance :   5.0000e-07
  Last Orbital Gradient      ...    6.2956e-07  Tolerance :   1.0000e-05
  Last Orbital Rotation      ...    3.3078e-06  Tolerance :   1.0000e-05


----------------
ORBITAL ENERGIES
----------------

  NO   OCC          E(Eh)            E(eV) 
   0   2.0000    -101.229203     -2754.5867 
   1   2.0000     -19.012435      -517.3547 
   2   2.0000     -18.992756      -516.8192 
   3   2.0000     -18.967500      -516.1319 
   4   2.0000     -18.962846      -516.0053 
   5   2.0000     -18.957163      -515.8506 
   6   2.0000     -18.952658      -515.7280 
   7   2.0000     -18.951708      -515.7022 
   8   2.0000     -18.943430      -515.4769 
   9   2.0000     -14.237243      -387.4151 
  10   2.0000     -10.174123      -276.8520 
  11   2.0000     -10.162536      -276.5367 
  12   2.0000     -10.138061      -275.8707 
  13   2.0000     -10.124809      -275.5101 
  14   2.0000     -10.113917      -275.2137 
  15   2.0000     -10.109654      -275.0977 
  16   2.0000     -10.093936      -274.6700 
  17   2.0000     -10.084123      -274.4029 
  18   2.0000     -10.081549      -274.3329 
  19   2.0000     -10.077211      -274.2148 
  20   2.0000     -10.074860      -274.1509 
  21   2.0000     -10.070451      -274.0309 
  22   2.0000     -10.062816      -273.8231 
  23   2.0000     -10.062293      -273.8089 
  24   2.0000      -9.385192      -255.3841 
  25   2.0000      -7.132105      -194.0745 
  26   2.0000      -7.121036      -193.7732 
  27   2.0000      -7.120639      -193.7624 
  28   2.0000      -1.096901       -29.8482 
  29   2.0000      -1.052069       -28.6283 
  30   2.0000      -1.042650       -28.3719 
  31   2.0000      -1.012410       -27.5491 
  32   2.0000      -1.002864       -27.2893 
  33   2.0000      -0.992924       -27.0188 
  34   2.0000      -0.987981       -26.8843 
  35   2.0000      -0.973225       -26.4828 
  36   2.0000      -0.946699       -25.7610 
  37   2.0000      -0.875977       -23.8365 
  38   2.0000      -0.820679       -22.3318 
  39   2.0000      -0.767808       -20.8931 
  40   2.0000      -0.752058       -20.4645 
  41   2.0000      -0.743689       -20.2368 
  42   2.0000      -0.726398       -19.7663 
  43   2.0000      -0.701403       -19.0861 
  44   2.0000      -0.663770       -18.0621 
  45   2.0000      -0.641389       -17.4531 
  46   2.0000      -0.617618       -16.8062 
  47   2.0000      -0.610468       -16.6117 
  48   2.0000      -0.596468       -16.2307 
  49   2.0000      -0.570275       -15.5180 
  50   2.0000      -0.559531       -15.2256 
  51   2.0000      -0.542890       -14.7728 
  52   2.0000      -0.530286       -14.4298 
  53   2.0000      -0.519922       -14.1478 
  54   2.0000      -0.514216       -13.9925 
  55   2.0000      -0.499319       -13.5872 
  56   2.0000      -0.490609       -13.3501 
  57   2.0000      -0.477539       -12.9945 
  58   2.0000      -0.476802       -12.9744 
  59   2.0000      -0.461555       -12.5596 
  60   2.0000      -0.459543       -12.5048 
  61   2.0000      -0.456461       -12.4209 
  62   2.0000      -0.437618       -11.9082 
  63   2.0000      -0.432408       -11.7664 
  64   2.0000      -0.428607       -11.6630 
  65   2.0000      -0.426530       -11.6065 
  66   2.0000      -0.421338       -11.4652 
  67   2.0000      -0.409999       -11.1566 
  68   2.0000      -0.404534       -11.0079 
  69   2.0000      -0.394989       -10.7482 
  70   2.0000      -0.388408       -10.5691 
  71   2.0000      -0.379930       -10.3384 
  72   2.0000      -0.374595       -10.1932 
  73   2.0000      -0.367578       -10.0023 
  74   2.0000      -0.360499        -9.8097 
  75   2.0000      -0.345143        -9.3918 
  76   2.0000      -0.341475        -9.2920 
  77   2.0000      -0.333921        -9.0864 
  78   2.0000      -0.330064        -8.9815 
  79   2.0000      -0.324464        -8.8291 
  80   2.0000      -0.319674        -8.6988 
  81   2.0000      -0.304489        -8.2856 
  82   2.0000      -0.297167        -8.0863 
  83   2.0000      -0.291944        -7.9442 
  84   2.0000      -0.290283        -7.8990 
  85   2.0000      -0.287176        -7.8145 
  86   2.0000      -0.261617        -7.1190 
  87   2.0000      -0.255787        -6.9603 
  88   2.0000      -0.250990        -6.8298 
  89   2.0000      -0.243608        -6.6289 
  90   2.0000      -0.238313        -6.4848 
  91   2.0000      -0.236155        -6.4261 
  92   2.0000      -0.225064        -6.1243 
  93   2.0000      -0.216591        -5.8937 
  94   0.0000      -0.067615        -1.8399 
  95   0.0000      -0.058165        -1.5827 
  96   0.0000      -0.024889        -0.6773 
  97   0.0000       0.000626         0.0170 
  98   0.0000       0.039134         1.0649 
  99   0.0000       0.044217         1.2032 
 100   0.0000       0.052489         1.4283 
 101   0.0000       0.059812         1.6276 
 102   0.0000       0.077816         2.1175 
 103   0.0000       0.081203         2.2097 
 104   0.0000       0.086755         2.3607 
*Only the first 10 virtual orbitals were printed.

                    ********************************
                    * MULLIKEN POPULATION ANALYSIS *
                    ********************************

-----------------------
MULLIKEN ATOMIC CHARGES
-----------------------
   0 O :   -0.054262
   1 C :   -0.159430
   2 O :   -0.195340
   3 C :    0.005728
   4 C :   -0.095863
   5 O :   -0.427398
   6 H :    0.311376
   7 C :   -0.020416
   8 O :   -0.445575
   9 H :    0.309582
  10 C :   -0.010266
  11 O :   -0.443227
  12 H :    0.340527
  13 H :    0.181018
  14 H :    0.202566
  15 H :    0.167765
  16 C :   -0.169638
  17 O :   -0.400702
  18 H :    0.294314
  19 H :    0.133623
  20 H :    0.149427
  21 H :    0.158848
  22 H :    0.155762
  23 C :   -0.014945
  24 C :    0.243515
  25 O :   -0.407029
  26 N :   -0.069437
  27 C :    0.143653
  28 C :   -0.325134
  29 C :   -0.215877
  30 C :    0.239655
  31 C :   -0.395580
  32 C :    0.193305
  33 O :   -0.134902
  34 H :    0.176300
  35 Cl:   -0.134173
  36 H :    0.166131
  37 H :    0.146241
  38 H :    0.264404
  39 H :    0.135454
Sum of atomic charges:    0.0000000

--------------------------------
MULLIKEN REDUCED ORBITAL CHARGES
--------------------------------
  0 O s       :     3.677809  s :     3.677809
      pz      :     1.616670  p :     4.338432
      px      :     0.980460
      py      :     1.741302
      dz2     :     0.004025  d :     0.038021
      dxz     :     0.004727
      dyz     :     0.006526
      dx2y2   :     0.006257
      dxy     :     0.016485

  1 C s       :     3.405469  s :     3.405469
      pz      :     0.995013  p :     2.659587
      px      :     0.828972
      py      :     0.835603
      dz2     :     0.019927  d :     0.094374
      dxz     :     0.013452
      dyz     :     0.015317
      dx2y2   :     0.021208
      dxy     :     0.024471

  2 O s       :     3.721353  s :     3.721353
      pz      :     1.708165  p :     4.444879
      px      :     1.435453
      py      :     1.301262
      dz2     :     0.007789  d :     0.029107
      dxz     :     0.001773
      dyz     :     0.008338
      dx2y2   :     0.001078
      dxy     :     0.010130

  3 C s       :     3.069633  s :     3.069633
      pz      :     1.023594  p :     2.856328
      px      :     0.822574
      py      :     1.010159
      dz2     :     0.011490  d :     0.068312
      dxz     :     0.010629
      dyz     :     0.015272
      dx2y2   :     0.013109
      dxy     :     0.017812

  4 C s       :     3.241489  s :     3.241489
      pz      :     1.026000  p :     2.783543
      px      :     0.830822
      py      :     0.926721
      dz2     :     0.016442  d :     0.070831
      dxz     :     0.011103
      dyz     :     0.011297
      dx2y2   :     0.013362
      dxy     :     0.018627

  5 O s       :     3.764456  s :     3.764456
      pz      :     1.830444  p :     4.647338
      px      :     1.228208
      py      :     1.588686
      dz2     :     0.003446  d :     0.015604
      dxz     :     0.001431
      dyz     :     0.003487
      dx2y2   :     0.002397
      dxy     :     0.004842

  6 H s       :     0.644412  s :     0.644412
      pz      :     0.012246  p :     0.044212
      px      :     0.015855
      py      :     0.016111

  7 C s       :     3.159480  s :     3.159480
      pz      :     1.060210  p :     2.790682
      px      :     0.835258
      py      :     0.895214
      dz2     :     0.015164  d :     0.070253
      dxz     :     0.010618
      dyz     :     0.011139
      dx2y2   :     0.016720
      dxy     :     0.016612

  8 O s       :     3.763629  s :     3.763629
      pz      :     1.812556  p :     4.660328
      px      :     1.555641
      py      :     1.292131
      dz2     :     0.003126  d :     0.021618
      dxz     :     0.003651
      dyz     :     0.005251
      dx2y2   :     0.004518
      dxy     :     0.005072

  9 H s       :     0.646221  s :     0.646221
      pz      :     0.013730  p :     0.044197
      px      :     0.009875
      py      :     0.020592

 10 C s       :     3.182384  s :     3.182384
      pz      :     0.999733  p :     2.756214
      px      :     0.943413
      py      :     0.813067
      dz2     :     0.018796  d :     0.071668
      dxz     :     0.006906
      dyz     :     0.013864
      dx2y2   :     0.013331
      dxy     :     0.018772

 11 O s       :     3.762987  s :     3.762987
      pz      :     1.714997  p :     4.659629
      px      :     1.547303
      py      :     1.397330
      dz2     :     0.001901  d :     0.020612
      dxz     :     0.004212
      dyz     :     0.005341
      dx2y2   :     0.004924
      dxy     :     0.004234

 12 H s       :     0.613805  s :     0.613805
      pz      :     0.011085  p :     0.045667
      px      :     0.023666
      py      :     0.010916

 13 H s       :     0.802026  s :     0.802026
      pz      :     0.011241  p :     0.016955
      px      :     0.003155
      py      :     0.002560

 14 H s       :     0.779741  s :     0.779741
      pz      :     0.011801  p :     0.017694
      px      :     0.002594
      py      :     0.003299

 15 H s       :     0.815385  s :     0.815385
      pz      :     0.010973  p :     0.016849
      px      :     0.002467
      py      :     0.003410

 16 C s       :     3.266284  s :     3.266284
      pz      :     0.813709  p :     2.843660
      px      :     1.093139
      py      :     0.936812
      dz2     :     0.015962  d :     0.059694
      dxz     :     0.007493
      dyz     :     0.017089
      dx2y2   :     0.004831
      dxy     :     0.014319

 17 O s       :     3.754313  s :     3.754313
      pz      :     1.190148  p :     4.626374
      px      :     1.874631
      py      :     1.561596
      dz2     :    -0.001624  d :     0.020015
      dxz     :     0.003198
      dyz     :     0.007864
      dx2y2   :     0.003450
      dxy     :     0.007126

 18 H s       :     0.661334  s :     0.661334
      pz      :     0.018526  p :     0.044351
      px      :     0.013497
      py      :     0.012328

 19 H s       :     0.849230  s :     0.849230
      pz      :     0.002723  p :     0.017146
      px      :     0.007963
      py      :     0.006461

 20 H s       :     0.832865  s :     0.832865
      pz      :     0.002667  p :     0.017708
      px      :     0.009828
      py      :     0.005213

 21 H s       :     0.824193  s :     0.824193
      pz      :     0.007195  p :     0.016959
      px      :     0.002543
      py      :     0.007221

 22 H s       :     0.826299  s :     0.826299
      pz      :     0.012764  p :     0.017939
      px      :     0.002568
      py      :     0.002607

 23 C s       :     3.262565  s :     3.262565
      pz      :     0.949161  p :     2.655278
      px      :     0.783351
      py      :     0.922766
      dz2     :     0.018406  d :     0.097102
      dxz     :     0.022431
      dyz     :     0.011101
      dx2y2   :     0.022133
      dxy     :     0.023031

 24 C s       :     3.121636  s :     3.121636
      pz      :     0.780841  p :     2.520918
      px      :     0.841570
      py      :     0.898507
      dz2     :     0.005670  d :     0.113932
      dxz     :     0.022352
      dyz     :     0.011202
      dx2y2   :     0.051657
      dxy     :     0.023050

 25 O s       :     3.838876  s :     3.838876
      pz      :     1.466994  p :     4.533586
      px      :     1.546496
      py      :     1.520096
      dz2     :     0.004493  d :     0.034566
      dxz     :     0.005213
      dyz     :     0.006253
      dx2y2   :     0.003723
      dxy     :     0.014884

 26 N s       :     3.299660  s :     3.299660
      pz      :     1.617481  p :     3.669265
      px      :     0.946678
      py      :     1.105106
      dz2     :     0.008228  d :     0.100513
      dxz     :     0.016602
      dyz     :     0.010473
      dx2y2   :     0.036407
      dxy     :     0.028802

 27 C s       :     3.178166  s :     3.178166
      pz      :     0.949480  p :     2.615996
      px      :     0.848903
      py      :     0.817614
      dz2     :     0.006262  d :     0.062185
      dxz     :     0.010723
      dyz     :     0.010784
      dx2y2   :     0.014140
      dxy     :     0.020276

 28 C s       :     3.261524  s :     3.261524
      pz      :     1.028731  p :     3.024960
      px      :     0.967639
      py      :     1.028589
      dz2     :     0.003562  d :     0.038650
      dxz     :     0.007917
      dyz     :     0.004321
      dx2y2   :     0.012984
      dxy     :     0.009866

 29 C s       :     3.195891  s :     3.195891
      pz      :     1.007509  p :     2.981967
      px      :     1.043780
      py      :     0.930678
      dz2     :     0.004080  d :     0.038020
      dxz     :     0.003982
      dyz     :     0.007447
      dx2y2   :     0.011833
      dxy     :     0.010678

 30 C s       :     3.079731  s :     3.079731
      pz      :     1.009273  p :     2.623989
      px      :     0.817661
      py      :     0.797055
      dz2     :     0.006025  d :     0.056625
      dxz     :     0.008982
      dyz     :     0.008284
      dx2y2   :     0.016312
      dxy     :     0.017022

 31 C s       :     3.326913  s :     3.326913
      pz      :     1.032192  p :     3.032227
      px      :     0.948609
      py      :     1.051426
      dz2     :     0.003699  d :     0.036440
      dxz     :     0.006988
      dyz     :     0.004115
      dx2y2   :     0.010198
      dxy     :     0.011440

 32 C s       :     3.149554  s :     3.149554
      pz      :     0.978869  p :     2.581625
      px      :     0.797829
      py      :     0.804927
      dz2     :     0.007667  d :     0.075516
      dxz     :     0.014575
      dyz     :     0.009054
      dx2y2   :     0.021496
      dxy     :     0.022723

 33 O s       :     3.703983  s :     3.703983
      pz      :     1.628592  p :     4.388838
      px      :     1.043671
[...]
 70:   1131.69   0.005173   26.14  0.001426  ( 0.016068 -0.020607 -0.027269)
 71:   1143.43   0.012181   61.56  0.003324  ( 0.011204 -0.056215 -0.006223)
 72:   1152.51   0.003706   18.73  0.001003  ( 0.012853  0.024280  0.015770)
 73:   1200.44   0.051826  261.91  0.013473  (-0.114085 -0.017083 -0.012867)
 74:   1209.54   0.002619   13.24  0.000676  (-0.025525  0.000042  0.004928)
 75:   1237.39   0.007337   37.08  0.001850  (-0.010967  0.030876  0.027869)
 76:   1240.84   0.027087  136.89  0.006812  (-0.079945 -0.007230 -0.019205)
 77:   1251.53   0.000044    0.22  0.000011  ( 0.001962 -0.002467 -0.001000)
 78:   1258.22   0.002050   10.36  0.000508  (-0.001498  0.022450 -0.001461)
 79:   1266.87   0.002218   11.21  0.000546  ( 0.018046  0.001946 -0.014729)
 80:   1272.13   0.000881    4.45  0.000216  ( 0.007273  0.011016  0.006469)
 81:   1284.53   0.001265    6.39  0.000307  (-0.008958  0.010568  0.010739)
 82:   1291.78   0.001058    5.35  0.000256  ( 0.001573  0.015448 -0.003803)
 83:   1320.06   0.023118  116.83  0.005465  ( 0.072331  0.013440  0.007266)
 84:   1323.41   0.008151   41.19  0.001922  ( 0.038110 -0.021026 -0.005255)
 85:   1339.55   0.017148   86.66  0.003995  ( 0.058855 -0.022968  0.001844)
 86:   1347.76   0.020943  105.84  0.004849  (-0.068669  0.010769 -0.004227)
 87:   1349.81   0.011031   55.75  0.002550  (-0.043701  0.024941  0.004297)
 88:   1366.86   0.000177    0.89  0.000040  ( 0.004162 -0.004693 -0.000993)
 89:   1377.14   0.003922   19.82  0.000889  ( 0.003833  0.027887  0.009818)
 90:   1385.03   0.000846    4.27  0.000191  (-0.005923 -0.006685 -0.010525)
 91:   1398.75   0.001918    9.69  0.000428  (-0.013202 -0.008239 -0.013626)
 92:   1414.02   0.007076   35.76  0.001562  ( 0.035060  0.018116 -0.002068)
 93:   1422.45   0.001832    9.26  0.000402  ( 0.016406  0.011001 -0.003434)
 94:   1424.00   0.000883    4.46  0.000193  (-0.011064  0.004275 -0.007265)
 95:   1436.64   0.002655   13.42  0.000577  ( 0.014747  0.010179  0.015986)
 96:   1445.11   0.000435    2.20  0.000094  (-0.002735  0.009293  0.000110)
 97:   1448.67   0.004596   23.23  0.000990  ( 0.022963  0.021234  0.003456)
 98:   1483.57   0.002294   11.59  0.000482  (-0.017883  0.012714  0.001019)
 99:   1485.37   0.002097   10.60  0.000441  (-0.000980 -0.014780  0.014870)
100:   1524.70   0.053415  269.94  0.010933  ( 0.094047 -0.045295  0.006008)
101:   1626.93   0.002727   13.78  0.000523  (-0.018207 -0.011828 -0.007193)
102:   1640.01   0.001415    7.15  0.000269  ( 0.015788  0.003819  0.002323)
103:   1761.45   0.140512  710.09  0.024894  ( 0.136596 -0.078861  0.004006)
104:   2949.45   0.019852  100.32  0.002100  (-0.011105 -0.021090 -0.039145)
105:   2952.89   0.006654   33.63  0.000703  (-0.003427 -0.005701  0.025671)
106:   2972.19   0.002066   10.44  0.000217  ( 0.000842  0.002514 -0.014486)
107:   2977.55   0.007316   36.97  0.000767  ( 0.010566 -0.025131 -0.004854)
108:   3005.89   0.005319   26.88  0.000552  ( 0.010861  0.008734  0.018919)
109:   3031.06   0.002726   13.78  0.000281  (-0.003399  0.006181 -0.015196)
110:   3036.45   0.005155   26.05  0.000530  ( 0.004553  0.017479  0.014267)
111:   3045.77   0.003914   19.78  0.000401  ( 0.017991  0.008647  0.001617)
112:   3169.40   0.000456    2.30  0.000045  ( 0.001190 -0.006419 -0.001510)
113:   3208.56   0.000766    3.87  0.000074  (-0.002476 -0.007739 -0.002910)
114:   3210.79   0.000522    2.64  0.000051  ( 0.001100 -0.006867 -0.001532)
115:   3590.99   0.009971   50.39  0.000867  (-0.012674 -0.026396 -0.003023)
116:   3652.24   0.091916  464.51  0.007854  (-0.086628 -0.018549  0.002307)
117:   3801.96   0.011117   56.18  0.000912  ( 0.026977 -0.013458 -0.001898)
118:   3806.82   0.009998   50.53  0.000820  (-0.004814  0.027396  0.006776)
119:   3849.68   0.008267   41.78  0.000670  ( 0.005476  0.007208 -0.024252)

* The epsilon (eps) is given for a Dirac delta lineshape.
** The dipole moment derivative (T) already includes vibrational overlap.

The first frequency considered to be a vibration is 7
The total number of vibrations considered is 113


--------------------------
THERMOCHEMISTRY AT 298.15K
--------------------------

Temperature         ...   298.15 K
Pressure            ...     1.00 atm
Total Mass          ...   361.73 AMU
Quasi RRHO          ...     True
Cut-Off Frequency   ...     1.00 cm^-1

Throughout the following assumptions are being made:
  (1) The electronic state is orbitally nondegenerate
  (2) There are no thermally accessible electronically excited states
  (3) Hindered rotations indicated by low frequency modes are not
      treated as such but are treated as vibrations and this may
      cause some error
  (4) All equations used are the standard statistical mechanics
      equations for an ideal gas
  (5) All vibrations are strictly harmonic

freq.      13.25  E(vib)   ...       0.57 
freq.      27.80  E(vib)   ...       0.55 
freq.      55.80  E(vib)   ...       0.52 
freq.      73.59  E(vib)   ...       0.49 
freq.     101.86  E(vib)   ...       0.46 
freq.     115.52  E(vib)   ...       0.44 
freq.     131.70  E(vib)   ...       0.42 
freq.     144.58  E(vib)   ...       0.41 
freq.     158.90  E(vib)   ...       0.39 
freq.     180.32  E(vib)   ...       0.37 
freq.     191.67  E(vib)   ...       0.36 
freq.     206.85  E(vib)   ...       0.35 
freq.     219.45  E(vib)   ...       0.33 
freq.     224.75  E(vib)   ...       0.33 
freq.     225.87  E(vib)   ...       0.33 
freq.     249.69  E(vib)   ...       0.31 
freq.     283.45  E(vib)   ...       0.28 
freq.     302.38  E(vib)   ...       0.26 
freq.     323.95  E(vib)   ...       0.25 
freq.     325.60  E(vib)   ...       0.24 
freq.     351.21  E(vib)   ...       0.23 
freq.     352.62  E(vib)   ...       0.22 
freq.     364.62  E(vib)   ...       0.22 
freq.     387.15  E(vib)   ...       0.20 
freq.     397.67  E(vib)   ...       0.20 
freq.     413.98  E(vib)   ...       0.19 
freq.     417.17  E(vib)   ...       0.18 
freq.     430.38  E(vib)   ...       0.18 
freq.     467.63  E(vib)   ...       0.16 
freq.     485.88  E(vib)   ...       0.15 
freq.     528.25  E(vib)   ...       0.13 
freq.     531.32  E(vib)   ...       0.13 
freq.     547.75  E(vib)   ...       0.12 
freq.     568.07  E(vib)   ...       0.11 
freq.     571.04  E(vib)   ...       0.11 
freq.     585.39  E(vib)   ...       0.11 
freq.     599.96  E(vib)   ...       0.10 
freq.     602.33  E(vib)   ...       0.10 
freq.     615.40  E(vib)   ...       0.10 
freq.     636.31  E(vib)   ...       0.09 
freq.     699.64  E(vib)   ...       0.07 
freq.     716.89  E(vib)   ...       0.07 
freq.     739.46  E(vib)   ...       0.06 
freq.     783.89  E(vib)   ...       0.05 
freq.     800.60  E(vib)   ...       0.05 
freq.     815.82  E(vib)   ...       0.05 
freq.     847.07  E(vib)   ...       0.04 
freq.     858.24  E(vib)   ...       0.04 
freq.     908.88  E(vib)   ...       0.03 
freq.     926.30  E(vib)   ...       0.03 
freq.     931.44  E(vib)   ...       0.03 
freq.     944.24  E(vib)   ...       0.03 
freq.     974.00  E(vib)   ...       0.03 
freq.     996.08  E(vib)   ...       0.02 
freq.    1015.47  E(vib)   ...       0.02 
freq.    1021.17  E(vib)   ...       0.02 
freq.    1045.67  E(vib)   ...       0.02 
freq.    1085.31  E(vib)   ...       0.02 
freq.    1086.53  E(vib)   ...       0.02 
freq.    1093.52  E(vib)   ...       0.02 
freq.    1102.70  E(vib)   ...       0.02 
freq.    1104.06  E(vib)   ...       0.02 
freq.    1121.78  E(vib)   ...       0.01 
freq.    1131.69  E(vib)   ...       0.01 
freq.    1143.43  E(vib)   ...       0.01 
freq.    1152.51  E(vib)   ...       0.01 
freq.    1200.44  E(vib)   ...       0.01 
freq.    1209.54  E(vib)   ...       0.01 
freq.    1237.39  E(vib)   ...       0.01 
freq.    1240.84  E(vib)   ...       0.01 
freq.    1251.53  E(vib)   ...       0.01 
freq.    1258.22  E(vib)   ...       0.01 
freq.    1266.87  E(vib)   ...       0.01 
freq.    1272.13  E(vib)   ...       0.01 
freq.    1284.53  E(vib)   ...       0.01 
freq.    1291.78  E(vib)   ...       0.01 
freq.    1320.06  E(vib)   ...       0.01 
freq.    1323.41  E(vib)   ...       0.01 
freq.    1339.55  E(vib)   ...       0.01 
freq.    1347.76  E(vib)   ...       0.01 
freq.    1349.81  E(vib)   ...       0.01 
freq.    1366.86  E(vib)   ...       0.01 
freq.    1377.14  E(vib)   ...       0.01 
freq.    1385.03  E(vib)   ...       0.00 
freq.    1398.75  E(vib)   ...       0.00 
freq.    1414.02  E(vib)   ...       0.00 
freq.    1422.45  E(vib)   ...       0.00 
freq.    1424.00  E(vib)   ...       0.00 
freq.    1436.64  E(vib)   ...       0.00 
freq.    1445.11  E(vib)   ...       0.00 
freq.    1448.67  E(vib)   ...       0.00 
freq.    1483.57  E(vib)   ...       0.00 
freq.    1485.37  E(vib)   ...       0.00 
freq.    1524.70  E(vib)   ...       0.00 
freq.    1626.93  E(vib)   ...       0.00 
freq.    1640.01  E(vib)   ...       0.00 
freq.    1761.45  E(vib)   ...       0.00 
freq.    2949.45  E(vib)   ...       0.00 
freq.    2952.89  E(vib)   ...       0.00 
freq.    2972.19  E(vib)   ...       0.00 
freq.    2977.55  E(vib)   ...       0.00 
freq.    3005.89  E(vib)   ...       0.00 
freq.    3031.06  E(vib)   ...       0.00 
freq.    3036.45  E(vib)   ...       0.00 
freq.    3045.77  E(vib)   ...       0.00 
freq.    3169.40  E(vib)   ...       0.00 
freq.    3208.56  E(vib)   ...       0.00 
freq.    3210.79  E(vib)   ...       0.00 
freq.    3590.99  E(vib)   ...       0.00 
freq.    3652.24  E(vib)   ...       0.00 
freq.    3801.96  E(vib)   ...       0.00 
freq.    3806.82  E(vib)   ...       0.00 
freq.    3849.68  E(vib)   ...       0.00 

------------
INNER ENERGY
------------

The inner energy is: U= E(el) + E(ZPE) + E(vib) + E(rot) + E(trans)
    E(el)   - is the total energy from the electronic structure calculation
              = E(kin-el) + E(nuc-el) + E(el-el) + E(nuc-nuc)
    E(ZPE)  - the the zero temperature vibrational energy from the frequency calculation
    E(vib)  - the the finite temperature correction to E(ZPE) due to population
              of excited vibrational states
    E(rot)  - is the rotational thermal energy
    E(trans)- is the translational thermal energy

Summary of contributions to the inner energy U:
Electronic energy                ...  -1659.65609667 Eh
Zero point energy                ...      0.30425793 Eh     190.92 kcal/mol
Thermal vibrational correction   ...      0.01854550 Eh      11.64 kcal/mol
Thermal rotational correction    ...      0.00141627 Eh       0.89 kcal/mol
Thermal translational correction ...      0.00141627 Eh       0.89 kcal/mol
-----------------------------------------------------------------------
Total thermal energy                  -1659.33046070 Eh


Summary of corrections to the electronic energy:
(perhaps to be used in another calculation)
Total thermal correction                  0.02137804 Eh      13.41 kcal/mol
Non-thermal (ZPE) correction              0.30425793 Eh     190.92 kcal/mol
-----------------------------------------------------------------------
Total correction                          0.32563597 Eh     204.34 kcal/mol


--------
ENTHALPY
--------

The enthalpy is H = U + kB*T
                kB is Boltzmann's constant
Total thermal energy              ...  -1659.33046070 Eh 
Thermal Enthalpy correction       ...      0.00094421 Eh       0.59 kcal/mol
-----------------------------------------------------------------------
Total Enthalpy                    ...  -1659.32951649 Eh


Note: Only C1 symmetry has been detected, increase convergence thresholds 
      if your molecule has a higher symmetry. Symmetry factor of 1.0 is   
      used for the rotational entropy correction. 
 

Note: Rotational entropy computed according to Herzberg 
Infrared and Raman Spectra, Chapter V,1, Van Nostrand Reinhold, 1945 
Point Group:  C1, Symmetry Number:   1  
Rotational constants in cm-1:     0.015279     0.003208     0.002777 

Vibrational entropy computed according to the QRRHO of S. Grimme
Chem.Eur.J. 2012 18 9955 using a reference frequency of 100.0 cm-1


-------
ENTROPY
-------

The entropy contributions are T*S = T*(S(el)+S(vib)+S(rot)+S(trans))
     S(el)   - electronic entropy
     S(vib)  - vibrational entropy
     S(rot)  - rotational entropy
     S(trans)- translational entropy
The entropies will be listed as multiplied by the temperature to get
units of energy

Electronic entropy                ...      0.00000000 Eh      0.00 kcal/mol
Vibrational entropy               ...      0.03241261 Eh     20.34 kcal/mol
Rotational entropy                ...      0.01697436 Eh     10.65 kcal/mol
Translational entropy             ...      0.02069220 Eh     12.98 kcal/mol
-----------------------------------------------------------------------
Final entropy term                ...      0.07007917 Eh     43.98 kcal/mol

In case the symmetry of your molecule has not been determined correctly
or in case you have a reason to use a different symmetry number we print 
out the resulting rotational entropy values for sn=1,12:

 non-linear molecules -----------------------------------
|  sn= 1 | S(rot)=       0.01697436 Eh     10.65 kcal/mol|
|  sn= 2 | S(rot)=       0.01631990 Eh     10.24 kcal/mol|
|  sn= 3 | S(rot)=       0.01593707 Eh     10.00 kcal/mol|
|  sn= 4 | S(rot)=       0.01566544 Eh      9.83 kcal/mol|
|  sn= 5 | S(rot)=       0.01545476 Eh      9.70 kcal/mol|
|  sn= 6 | S(rot)=       0.01528261 Eh      9.59 kcal/mol|
|  sn= 7 | S(rot)=       0.01513706 Eh      9.50 kcal/mol|
|  sn= 8 | S(rot)=       0.01501099 Eh      9.42 kcal/mol|
|  sn= 9 | S(rot)=       0.01489978 Eh      9.35 kcal/mol|
|  sn=10 | S(rot)=       0.01480030 Eh      9.29 kcal/mol|
|  sn=11 | S(rot)=       0.01471031 Eh      9.23 kcal/mol|
|  sn=12 | S(rot)=       0.01462815 Eh      9.18 kcal/mol|
 linear molecules ---------------------------------------
|  Dinfh | S(rot)=       0.01088347 Eh      6.83 kcal/mol|
|  Cinfv | S(rot)=       0.01153793 Eh      7.24 kcal/mol|
 --------------------------------------------------------


-------------------
GIBBS FREE ENERGY
-------------------

The Gibbs free energy is G = H - T*S

Total enthalpy                    ...  -1659.32951649 Eh 
Total entropy correction          ...     -0.07007917 Eh    -43.98 kcal/mol
-----------------------------------------------------------------------
Final Gibbs free energy         ...  -1659.39959566 Eh

For completeness - the Gibbs free energy minus the electronic energy
G-E(el)                           ...      0.25650101 Eh    160.96 kcal/mol



--------------------------------
SUGGESTED CITATIONS FOR THIS RUN
--------------------------------

Below you find a list of papers that are relevant to this ORCA run
We neither can nor want to force you to cite these papers, but we appreciate if you do
You receive ORCA, which is the product of decades of hard work by many enthusiastic individuals, for free
The only thing we kindly ask in return is that you cite our papers,
We deeply appreciate it, if you show your appreciation for ORCA by not just citing the generic ORCA reference.

Please note that relegating all ORCA citations to the supporting information does *not* help us.
SI sections are not indexed - citations you put there will not count into any citation statistics
But we need these citations in order to attract the funding resources that allow us to do what we are doing

Therefore, if you are a happy ORCA user, please consider citing a few of the papers listed below in the main body of your paper

In addition to the list printed below, the program has created the file r2_test.bibtex that contains the list in bibtex format
You can import this file easily into all common literature databanks and citation aid programs


List of essential papers. We consider these as the minimum necessary citations

  1. Grimme, S.; Hansen, A.; Ehlert, S.; Mewes, J.
     r2SCAN-3c: A 'Swiss army knife' composite electronic-structure method
     J. Chem. Phys. 2021 154 , 064103
     doi.org/10.1063/5.0040021
  2. Neese, F.
     Software update: the ORCA program system, version 6.0
     WIRES Comput. Molec. Sci. 2025 15(1), e70019
     doi.org/10.1002/wcms.7019

List of papers to cite with high priority. The work reported in these papers was absolutely
necessary for this run to complete.
Our perspective: the developers of density functionals and basis sets usually get cited in chemistry papers
Good! But without the algorithms to do something with them, the functionals or basis sets would not do anything.
Hence, in our opinion, the algorithm design and method developments papers are equally worthy of getting cited

  1. Neese, F.
     An improvement of the resolution of the identity approximation for the formation of the Coulomb matrix
     J. Comp. Chem. 2003 24(14), 1740-1747
     doi.org/10.1002/jcc.10318
  2. Caldeweyher, E.; Bannwarth, C.; Grimme, S.
     Extension of the D3 dispersion coefficient model
     J. Chem. Phys. 2017 147 , 034112
     doi.org/10.1063/1.4993215
  3. Lehtola, S.; Steigemann, C.; Oliveira, M.; Marques, M.
     Recent developments in Libxc - A comprehensive library of functionals for density functional theory
     Software X 2018 7 , 
     doi.org/10.1016/j.softx.2017.11.002
  4. Caldeweyher, E.; Ehlert, S.; Hansen, A.; Neugebauer, H.; Spicher, S.; Bannwarth, C.; Grimme, S.
     A generally applicable atomic-charge dependent London dispersion correction
     J. Chem. Phys. 2019 150 , 154122
     doi.org/10.1063/1.5090222
  5. Caldeweyher, E.; Mewes, J.; Ehlert, S.; Grimme, S.
     Extension and evaluation of the D4 London-dispersion model for periodic systems
     Phys. Chem. Chem. Phys. 2020 22(16), 8499-8512
     doi.org/10.1039/D0CP00502A
  6. Neese, F.
     The SHARK Integral Generation and Digestion System
     J. Comp. Chem. 2022 44(3), 381
     doi.org/10.1002/jcc.26942
  7. Wittmann, L.; Gordiy, I.; Friede, M.; Helmich-Paris, B.; Grimme, S.; Hansen, A.; Bursch, M.
     Extension of the D3 and D4 London Dispersion Corrections to the full Actinides Series
     Phys. Chem. Chem. Phys. 2024 26(32), 21379-21394
     doi.org/10.1039/D4CP01514B

List of suggested additional citations. These are papers that are important in the 'surrounding' of 
of this run, or papers that preceded the highly important papers. If you like your results we are grateful for a citation.

  1. Neese, F.
     The ORCA program system
     WIRES Comput. Molec. Sci. 2012 2(1), 73-78
     doi.org/10.1002/wcms.81
  2. Neese, F.
     Software update: the ORCA program system, version 4.0
     WIRES Comput. Molec. Sci. 2018 8(1), 1-6
     doi.org/10.1002/wcms.1327
  3. Neese, F.; Wennmohs, F.; Becker, U.; Riplinger, C.
     The ORCA quantum chemistry program package
     J. Chem. Phys. 2020 152(22), 224108
     doi.org/10.1063/5.0004608
  4. Neese, F.
     Software update: The ORCA program system—Version 5.0
     WIRES Comput. Molec. Sci. 2022 12(1), e1606
     doi.org/10.1002/wcms.1606

List of optional additional citations

  1. Neese, F.
     Approximate second-order SCF convergence for spin unrestricted wavefunctions
     Chem. Phys. Lett. 2000 325(1-3), 93-98
     doi.org/10.1016/s0009-2614(00)00662-x

Timings for individual modules:

Sum of individual times          ...     4820.567 sec (=  80.343 min)
Startup calculation              ...       44.094 sec (=   0.735 min)   0.9 %
SCF iterations                   ...      410.105 sec (=   6.835 min)   8.5 %
Property calculations            ...        1.315 sec (=   0.022 min)   0.0 %
SCF Gradient evaluation          ...       73.238 sec (=   1.221 min)   1.5 %
Geometry relaxation              ...        1.478 sec (=   0.025 min)   0.0 %
Numerical frequency calculation  ...     4290.338 sec (=  71.506 min)  89.0 %
                             ****ORCA TERMINATED NORMALLY****
TOTAL RUN TIME: 0 days 1 hours 20 minutes 15 seconds 472 msec
