
                                 *****************
                                 * O   R   C   A *
                                 *****************

                                            #,                                       
                                            ###                                      
                                            ####                                     
                                            #####                                    
                                            ######                                   
                                           ########,                                 
                                     ,,################,,,,,                         
                               ,,#################################,,                 
                          ,,##########################################,,             
                       ,#########################################, ''#####,          
                    ,#############################################,,   '####,        
                  ,##################################################,,,,####,       
                ,###########''''           ''''###############################       
              ,#####''   ,,,,##########,,,,          '''####'''          '####       
            ,##' ,,,,###########################,,,                        '##       
           ' ,,###''''                  '''############,,,                           
         ,,##''                                '''############,,,,        ,,,,,,###''
      ,#''                                            '''#######################'''  
     '                                                          ''''####''''         
             ,#######,   #######,   ,#######,      ##                                
            ,#'     '#,  ##    ##  ,#'     '#,    #''#        ,####,    ,#,          
            ##       ##  ##   ,#'  ##            #'  '#       #'       ,# #          
            ##       ##  #######   ##           ,######,      #####,      #          
            '#,     ,#'  ##    ##  '#,     ,#' ,#      #,     #,   #      #          
             '#######'   ##     ##  '#######'  #'      '#     '####' #    #          



                #########################################################
                #                        -***-                          #
                #          Department of theory and spectroscopy        #
                #                                                       #
                #                      Frank Neese                      #
                #                                                       #
                #     Directorship, Architecture, Infrastructure        #
                #                    SHARK, DRIVERS                     #
                #        Core code/Algorithms in most modules           #
                #                                                       #
                #        Max Planck Institute fuer Kohlenforschung      #
                #                Kaiser Wilhelm Platz 1                 #
                #                 D-45470 Muelheim/Ruhr                 #
                #                      Germany                          #
                #                                                       #
                #                  All rights reserved                  #
                #                        -***-                          #
                #########################################################


                         Program Version 6.1.0  -  RELEASE   -
                                (GIT: $679e74b$)
                          ($2025-06-10 18:02:51 +0200$)


 With contributions from (in alphabetic order):
[Max-Planck-Institut fuer Kohlenforschung]                               
  Daniel Aravena         : Magnetic Suceptibility                        
  Michael Atanasov       : Ab Initio Ligand Field Theory (pilot matlab implementation)
  Alexander A. Auer      : GIAO ZORA, VPT2 properties, NMR spectrum      
  Ute Becker             : All parallelization in ORCA, NUMFREQ, NUMCALC 
  Giovanni Bistoni       : ED, misc. LED, open-shell LED, HFLD           
  Dmytro Bykov           : pre 5.0 version of the SCF Hessian            
  Marcos Casanova-Páez   : Triplet and SCS-CIS(D). UHF-(DLPNO)-IP/EA/STEOM-CCSD. UHF-CVS-IP/STEOM-CCSD   
  Vijay G. Chilkuri      : MRCI spin determinant printing, contributions to CSF-ICE 
  Pauline Colinet        : FMM embedding                                 
  Dipayan Datta          : RHF DLPNO-CCSD density                        
  Achintya Kumar Dutta   : EOM-CC, STEOM-CC                              
  Nicolas Foglia         : Exact transition moments, OPA infrastructure, MCD improvements    
  Dmitry Ganyushin       : Spin-Orbit,Spin-Spin,Magnetic field MRCI      
  Miquel Garcia-Rates    : C-PCM and meta-GGA Hessian, CCSD/C-PCM, Gaussian charge scheme 
  Tiago L. C. Gouveia    : GS-ROHF, GS-ROCIS                             
  Yang Guo               : DLPNO-NEVPT2, F12-NEVPT2, CIM, IAO-localization        
  Andreas Hansen         : Spin unrestricted coupled pair/coupled cluster methods 
  Ingolf Harden          : AUTO-CI MPn and infrastructure                
  Benjamin Helmich-Paris : MC-RPA, TRAH-(SCF,CASSCF), AVAS, COSX integrals, SCF dyn. polar., MC-PDFT, srDFT 
  Lee Huntington         : MR-EOM, pCC                                   
  Robert Izsak           : Overlap fitted RIJCOSX, COSX-SCS-MP3, EOM     
  Riya Kayal             : Wick's Theorem for AUTO-CI, AUTO-CI UHF-CCSDT 
  Emily Kempfer          : AUTO-CI RHF CISDT and CCSDT, approximate NEVPT4
  Christian Kollmar      : KDIIS, OOCD, Brueckner-CCSD(T), CCSD density, CASPT2, CASPT2-K, improved NEVPT2 
  Axel Koslowski         : Symmetry handling                             
  Simone Kossmann        : meta-GGA functionals, TD-DFT gradient, OOMP2, (MP2 Hessian; deprecated post 5.0) 
  Lucas Lang             : DCDCAS, Hyperfine gauge corrections, ICE-SOC+SSC
  Marvin Lechner         : AUTO-CI (C++ implementation), FIC-MRCC        
  Spencer Leger          : CASSCF response                               
  Dagmar Lenk            : GEPOL surface, SMD, ORCA-2-JSON               
  Dimitrios Liakos       : Extrapolation schemes; Compound Job, Property file
  Dimitrios Manganas     : Further ROCIS development; embedding schemes. LFT, Crystal Embedding 
  Dimitrios Pantazis     : SARC Basis sets                               
  Anastasios Papadopoulos: AUTO-CI, single reference methods and gradients 
  Taras Petrenko         : pre 6.0 DFT Hessian and TD-DFT gradient,  ECA, NRVS 
  Petra Pikulova         : Analytic Raman intensities                    
  Peter Pinski           : DLPNO-MP2, DLPNO-MP2 Gradient                 
  Shashank Vittal Rao    : ES-AILFT, MagRelax                            
  Christoph Reimann      : Effective Core Potentials                     
  Marius Retegan         : Local ZFS, SOC                                
  Christoph Riplinger    : Optimizer, TS searches, QM/MM, DLPNO-CCSD(T), (RO)-DLPNO pert. Triples 
  Michael Roemelt        : Original ROCIS implementation, recursive CI coupling coefficients
  Masaaki Saitow         : Open-shell DLPNO-CCSD energy and density      
  Barbara Sandhoefer     : DKH picture change effects                    
  Yorick L. A. Schmerwitz: GMF and freeze-and-release deltaSCF, NEB S-IDPP initial path                    
  Kantharuban Sivalingam : CASSCF convergence/infrastructure, NEVPT2, NEVPT3, NEVPT4(SD), FIC-MRCI and CEPA variants
  Bernardo de Souza      : ESD, SOC TD-DFT                               
  Georgi L. Stoychev     : AutoAux, RI-MP2 NMR, DLPNO-MP2 response, X2C  
  Van Anh Tran           : RI-MP2 g-tensors                              
  Willem Van den Heuvel  : Paramagnetic NMR                              
  Zikuan Wang            : NOTCH, Electric field optimization            
  Frank Wennmohs         : Technical directorship and infrastructure     
  Hang Xu                : AUTO-CI-Response properties                   
                                                                         
[FACCTs GmbH]                                                            
  Markus Bursch, Nicolas Foglia, Miquel Garcia-Rates, Ingolf Harden, Hagen Neugebauer, Anastasios Papadopoulos, 
  Christoph Riplinger, Bernardo de Souza, Georgi L. Stoychev                                                    
                                                                 
  APM, various basis sets, CI-OPT, improved COSX, DLPNO-Multilevel,           
  DOCKER, DRACO, updates on ESD, Fragmentator, GOAT, IRC, LR-CPCM, L-BFGS, MBIS, meta-GGA TD-DFT gradient, ML-optimized integration grids, 
  MM, NACMEs, nearIR, NEB, NEB-TS, NL-DFT gradient (VV10), 2- and 3-layer-ONIOM, interface openCOSMO-RS, QMMM,   
  Crystal-QMMM, RESP, rigid body optimization, SF, symmetry and pop. for TD-DFT, various functionals, SOLVATOR                                   
                                                                         
[Other institutions]                                                     
  V. Asgeirsson          : NEB                                           
  Christoph Bannwarth    : sTDA-DFT, sTD-DFT, PBEh-3c, B97-3c, D3        
  Giovanni Bistoni       : ETS/NOCV, ADLD/ADEX, COVALED                  
  Martin Brehm           : Molecular dynamics                            
  Ronald Cardenas        : ETS/NOCV                                      
  Martina Colucci        : COVALED                                       
  Sebastian Ehlert       : rSCAN, r2SCAN, r2SCAN-3c, D4, dhf basis sets  
  Marvin Friede          : D4 for Fr, Ra, Ac-Lr                          
  Lars Goerigk           : TD-DFT with DH, B97 family of functionals     
  Stefan Grimme          : VdW corrections, initial TS optimization, DFT functionals, gCP, sTDA/sTD-DF 
  Waldemar Hujo          : DFT-NL                                        
  H. Jonsson             : NEB                                           
  Holger Kruse           : gCP                                           
  Marcel Mueller         : wB97X-3c, vDZP basis set                      
  Hagen Neugebauer       : wr2SCAN, Native XTB                           
  Gianluca Regni         : ADLD/ADEX                                     
  Tobias Risthaus        : pre 6.0 range-separated hybrid DFT and stability analysis
  Lukas Wittmann         : regularized MP2, r2SCAN double-hybrids, wr2SCAN        
                                                                         
We gratefully acknowledge several colleagues who have allowed us to      
interface, adapt or use parts of their codes:                            
  Ed Valeev, F. Pavosevic, A. Kumar             : LibInt (2-el integral package), F12 methods 
  Garnet Chan, S. Sharma, J. Yang, R. Olivares  : DMRG                   
  Ulf Ekstrom                                   : XCFun DFT Library      
  Mihaly Kallay                                 : mrcc  (arbitrary order and MRCC methods)
  Frank Weinhold                                : gennbo (NPA and NBO analysis)           
  Simon Mueller                                 : openCOSMO-RS                            
  Christopher J. Cramer and Donald G. Truhlar   : smd solvation model                     
  S Lehtola, MJT Oliveira, MAL Marques          : LibXC Library                           
  Liviu Ungur et al                             : ANISO software                          


 Your calculation uses the libint2 library for the computation of 2-el integrals
 For citations please refer to: http://libint.valeyev.net

 Your ORCA version has been built with support for libXC version: 7.0.0
 For citations please refer to: https://libxc.gitlab.io

 This ORCA versions uses:
   CBLAS   interface :  Fast vector & matrix operations
   LAPACKE interface :  Fast linear algebra routines
   SCALAPACK package :  Parallel linear algebra routines
   Shared memory     :  Shared parallel matrices
   BLAS/LAPACK       :  OpenBLAS 0.3.29  USE64BITINT DYNAMIC_ARCH NO_AFFINITY Zen SINGLE_THREADED
        Core in use  :  Zen
   Copyright (c) 2011-2014, The OpenBLAS Project


  ***********************************
  * Starting time: Wed Jun 25 09:51:02 2025
  * Host name:     exp-3-02
  * Process ID:    3954567
  * Working dir.:  /home/aweiland/comparing_theories/xTB/new_test
  ***********************************

NOTE: MaxCore=2000 MB was set to SCF,MP2,MDCI,CIPSI,MRCI,RASCI and CIS
      => If you want to overwrite this, your respective input block should be placed after the MaxCore statement
Your calculation utilizes the semiempirical GFN2-xTB method
Please cite in your paper:
Bannwarth, C.; Ehlert S.; Grimme, S. J. Chem. Theory Comput. 2019, 15, 1652.
   

================================================================================

================================================================================
                                        WARNINGS
                       Please study these warnings very carefully!
================================================================================


WARNING: The environment variable RSH_COMMAND is not set!
  ===> : All Displacements for the Numerical Hessian or Gradient calculation
         will be started on localhost

WARNING: Geometry Optimization
  ===> : Switching off AutoStart
         For restart on a previous wavefunction, please use MOREAD

WARNING: Found dipole moment calculation with XTB calculation
  ===> : Switching off dipole moment calculation


WARNING: Found frequency calculation in combination with XTB calculation
  ===> : Need to redirect dipole moment calculation to properties.out


================================================================================
                                       INPUT FILE
================================================================================
NAME = xtb_test2.inp
|  1> ! GFN2-XTB OPT NUMFREQ
|  2> 
|  3> %pal
|  4>    nprocs 4
|  5> end
|  6> 
|  7> %maxcore 2000
|  8> 
|  9> * xyz 0 1
| 10> O   -0.6052   0.5922   -0.7685
| 11> C   -1.7506   0.0461   -0.1664
| 12> O   -1.9967   -1.1790   -0.8061
| 13> C   -3.2141   -1.8356   -0.4735
| 14> C   -4.4050   -0.8816   -0.6227
| 15> O   -5.5604   -1.5339   -0.1464
| 16> H   -6.2695   -0.8802   -0.1450
| 17> C   -4.1799   0.4395   0.0845
| 18> O   -5.2839   1.2661   -0.2363
| 19> H   -5.0989   2.1440   0.1163
| 20> C   -2.8775   1.0416   -0.3900
| 21> O   -2.6576   2.2239   0.3354
| 22> H   -1.7941   2.5968   0.0924
| 23> H   -2.9389   1.2370   -1.4688
| 24> H   -4.1260   0.2761   1.1646
| 25> H   -4.5119   -0.6565   -1.6921
| 26> C   -3.1447   -2.5730   0.8504
| 27> O   -2.9643   -1.6622   1.9241
| 28> H   -3.1815   -2.1015   2.7496
| 29> H   -2.3028   -3.2712   0.7995
| 30> H   -4.0737   -3.1361   0.9644
| 31> H   -3.3224   -2.6121   -1.2341
| 32> H   -1.5842   -0.0926   0.9070
| 33> C   0.5561   0.6500   -0.0553
| 34> C   0.9750   2.1257   0.0869
| 35> O   0.1639   3.0227   0.1022
| 36> N   2.3067   2.3143   0.2535
| 37> C   3.2362   1.2668   0.2094
| 38> C   4.5500   1.4182   0.6223
| 39> C   5.4453   0.3665   0.5039
| 40> C   5.0086   -0.8382   -0.0236
| 41> C   3.6943   -1.0134   -0.4278
| 42> C   2.8106   0.0438   -0.3079
| 43> O   1.5334   -0.1022   -0.7528
| 44> H   3.3487   -1.9510   -0.8393
| 45> Cl  6.1203   -2.1560   -0.1745
| 46> H   6.4729   0.4785   0.8174
| 47> H   4.8777   2.3676   1.0274
| 48> H   2.6172   3.2601   0.4242
| 49> H   0.4368   0.2338   0.9560
| 50> *
| 51> 
| 52>                          ****END OF INPUT****
================================================================================

                       *****************************
                       * Geometry Optimization Run *
                       *****************************

Geometry optimization settings:
Update method            Update   .... BFGS
Choice of coordinates    CoordSys .... (2022) Redundant Internals
Initial Hessian          InHess   .... Almloef's Model
Max. no of cycles        MaxIter  .... 120

Convergence Tolerances:
Energy Change            TolE     ....  5.0000e-06 Eh
Max. Gradient            TolMAXG  ....  3.0000e-04 Eh/bohr
RMS Gradient             TolRMSG  ....  1.0000e-04 Eh/bohr
Max. Displacement        TolMAXD  ....  4.0000e-03 bohr
RMS Displacement         TolRMSD  ....  2.0000e-03 bohr
Strict Convergence                .... False

------------------------------------------------------------------------------
                        ORCA OPTIMIZATION COORDINATE SETUP
------------------------------------------------------------------------------

The optimization will be done in redundant internal coordinates (2022)
Making redundant internal coordinates   ...  (2022 redundants) done
Evaluating the initial hessian          ...  (Almloef) done
Evaluating the coordinates              ...  done
Calculating the B-matrix                .... done
Calculating the G-matrix                .... done
The number of degrees of freedom        ....  213

    -----------------------------------------------------------------
                    Redundant Internal Coordinates


    -----------------------------------------------------------------
         Definition                    Initial Value    Approx d2E/dq
    -----------------------------------------------------------------
      1. B(C   1,O   0)                  1.4045         0.530520   
      2. B(O   2,C   1)                  1.4038         0.531937   
      3. B(C   3,O   2)                  1.4226         0.496425   
      4. B(C   4,C   3)                  1.5332         0.369245   
      5. B(O   5,C   4)                  1.4097         0.520494   
      6. B(H   6,O   5)                  0.9644         0.511540   
      7. B(C   7,C   4)                  1.5153         0.394316   
      8. B(O   8,H   6)                  2.3635         0.010000   
      9. B(O   8,C   7)                  1.4160         0.508660   
     10. B(H   9,O   8)                  0.9640         0.512407   
     11. B(C  10,C   7)                  1.5113         0.400192   
     12. B(C  10,C   1)                  1.5202         0.387310   
     13. B(O  11,C  10)                  1.4044         0.530725   
     14. B(H  12,O  11)                  0.9715         0.498519   
     15. B(H  13,C  10)                  1.0981         0.349579   
     16. B(H  14,C   7)                  1.0937         0.355214   
     17. B(H  15,C   4)                  1.0981         0.349607   
     18. B(C  16,C   3)                  1.5170         0.391850   
     19. B(O  17,C  16)                  1.4195         0.502154   
     20. B(H  18,O  17)                  0.9600         0.519946   
     21. B(H  19,C  16)                  1.0949         0.353638   
     22. B(H  20,C  16)                  1.0923         0.357071   
     23. B(H  21,C   3)                  1.0923         0.357026   
     24. B(H  22,C   1)                  1.0950         0.353493   
     25. B(C  23,O   0)                  1.3640         0.615586   
     26. B(C  24,C  23)                  1.5406         0.359333   
     27. B(O  25,C  24)                  1.2094         1.086325   
     28. B(O  25,H  12)                  2.0038         0.011237   
     29. B(N  26,C  24)                  1.3553         0.635753   
     30. B(C  27,N  26)                  1.4011         0.537174   
     31. B(C  28,C  27)                  1.3855         0.635322   
     32. B(C  29,C  28)                  1.3862         0.633493   
     33. B(C  30,C  29)                  1.3857         0.634660   
     34. B(C  31,C  30)                  1.3862         0.633658   
     35. B(C  32,C  31)                  1.3831         0.640829   
     36. B(C  32,C  27)                  1.3944         0.614688   
     37. B(O  33,C  32)                  1.3603         0.624044   
     38. B(O  33,C  23)                  1.4168         0.507060   
     39. B(H  34,C  31)                  1.0807         0.372645   
     40. B(Cl 35,C  30)                  1.7307         0.401056   
     41. B(H  36,C  29)                  1.0802         0.373328   
     42. B(H  37,C  28)                  1.0830         0.369502   
     43. B(H  38,N  26)                  1.0100         0.432719   
     44. B(H  39,C  23)                  1.1001         0.347005   
     45. A(C   1,O   0,C  23)          119.1193         0.416116   
     46. A(O   2,C   1,H  22)          111.2715         0.340760   
     47. A(O   0,C   1,H  22)          110.2147         0.340608   
     48. A(O   0,C   1,O   2)          106.6747         0.405480   
     49. A(O   0,C   1,C  10)          106.6700         0.385992   
     50. A(O   2,C   1,C  10)          111.9943         0.386171   
     51. A(C  10,C   1,H  22)          109.8631         0.325257   
     52. A(C   1,O   2,C   3)          116.5051         0.400757   
     53. A(C   4,C   3,H  21)          107.3108         0.323244   
     54. A(O   2,C   3,C  16)          112.9073         0.382333   
     55. A(C   4,C   3,C  16)          115.0195         0.365603   
     56. A(O   2,C   3,H  21)          104.4862         0.337412   
     57. A(O   2,C   3,C   4)          110.7791         0.378415   
     58. A(C  16,C   3,H  21)          105.4659         0.326415   
     59. A(C   3,C   4,C   7)          112.4384         0.365996   
     60. A(C   7,C   4,H  15)          106.8739         0.325625   
     61. A(C   3,C   4,O   5)          108.4107         0.381533   
     62. A(O   5,C   4,H  15)          110.1280         0.338898   
     63. A(C   3,C   4,H  15)          107.3348         0.322133   
     64. A(O   5,C   4,C   7)          111.5605         0.385915   
     65. A(C   4,O   5,H   6)          106.8259         0.358206   
     66. A(O   8,C   7,C  10)          111.6051         0.385364   
     67. A(C   4,C   7,C  10)          109.1982         0.371088   
     68. A(C  10,C   7,H  14)          109.0939         0.327275   
     69. A(O   8,C   7,H  14)          110.4490         0.338497   
     70. A(C   4,C   7,H  14)          109.7530         0.326479   
     71. A(C   4,C   7,O   8)          106.7021         0.384373   
     72. A(C   7,O   8,H   9)          107.4059         0.356911   
     73. A(C   1,C  10,C   7)          109.3758         0.369945   
     74. A(O  11,C  10,H  13)          111.4937         0.339997   
     75. A(C   7,C  10,H  13)          109.3400         0.326415   
     76. A(C   1,C  10,H  13)          107.6072         0.324663   
     77. A(C   1,C  10,O  11)          111.0539         0.386018   
     78. A(C   7,C  10,O  11)          107.9485         0.388226   
     79. A(C  10,O  11,H  12)          109.4584         0.357822   
     80. A(H  19,C  16,H  20)          109.2736         0.289630   
     81. A(C   3,C  16,O  17)          110.7344         0.383096   
     82. A(C   3,C  16,H  19)          107.7323         0.325903   
     83. A(O  17,C  16,H  20)          111.0955         0.338065   
     84. A(C   3,C  16,H  20)          107.6236         0.326422   
     85. A(O  17,C  16,H  19)          110.2793         0.337521   
     86. A(C  16,O  17,H  18)          109.1507         0.357016   
     87. A(C  24,C  23,O  33)          111.4953         0.378021   
     88. A(O   0,C  23,O  33)          107.9000         0.412785   
     89. A(O   0,C  23,H  39)          111.8576         0.348133   
     90. A(O   0,C  23,C  24)          108.6839         0.390990   
     91. A(O  33,C  23,H  39)          109.0570         0.337004   
     92. A(C  24,C  23,H  39)          107.8807         0.320310   
     93. A(O  25,C  24,N  26)          123.6568         0.476543   
     94. A(C  23,C  24,N  26)          114.3198         0.393202   
     95. A(C  23,C  24,O  25)          121.9546         0.432419   
     96. A(C  24,N  26,C  27)          122.9529         0.419443   
     97. A(C  27,N  26,H  38)          120.0971         0.350058   
     98. A(C  24,N  26,H  38)          116.9475         0.360206   
     99. A(C  28,C  27,C  32)          119.7245         0.435303   
    100. A(N  26,C  27,C  32)          117.7034         0.419653   
    101. A(N  26,C  27,C  28)          122.5479         0.422133   
    102. A(C  27,C  28,C  29)          120.2707         0.437673   
    103. A(C  29,C  28,H  37)          120.1068         0.355750   
    104. A(C  27,C  28,H  37)          119.6183         0.355924   
    105. A(C  28,C  29,C  30)          119.2445         0.437591   
    106. A(C  30,C  29,H  36)          120.0278         0.356484   
    107. A(C  28,C  29,H  36)          120.7277         0.356372   
    108. A(C  29,C  30,Cl 35)          119.5196         0.421457   
    109. A(C  29,C  30,C  31)          121.3108         0.437611   
    110. A(C  31,C  30,Cl 35)          119.1687         0.421339   
    111. A(C  32,C  31,H  34)          119.4622         0.356959   
    112. A(C  30,C  31,H  34)          121.5949         0.356277   
    113. A(C  30,C  31,C  32)          118.9412         0.438375   
    114. A(C  31,C  32,O  33)          119.3072         0.434304   
    115. A(C  27,C  32,O  33)          120.1338         0.431064   
    116. A(C  27,C  32,C  31)          120.5004         0.435980   
    117. A(C  23,O  33,C  32)          115.4446         0.413786   
    118. D(H  22,C   1,O   0,C  23)     11.0210         0.022353   
    119. D(C  10,C   1,O   0,C  23)    130.2448         0.022353   
    120. D(O   2,C   1,O   0,C  23)   -109.9006         0.022353   
    121. D(C   3,O   2,C   1,H  22)     67.4724         0.022478   
    122. D(C   3,O   2,C   1,C  10)    -55.9276         0.022478   
    123. D(C   3,O   2,C   1,O   0)   -172.2832         0.022478   
    124. D(C  16,C   3,O   2,C   1)    -79.1476         0.019474   
    125. D(H  21,C   3,O   2,C   1)    166.7621         0.019474   
    126. D(C   4,C   3,O   2,C   1)     51.5012         0.019474   
    127. D(C   7,C   4,C   3,C  16)     79.5629         0.010902   
    128. D(C   7,C   4,C   3,O   2)    -49.9705         0.010902   
    129. D(O   5,C   4,C   3,H  21)     72.7313         0.010902   
    130. D(O   5,C   4,C   3,C  16)    -44.2504         0.010902   
    131. D(C   7,C   4,C   3,H  21)   -163.4554         0.010902   
    132. D(O   5,C   4,C   3,O   2)   -173.7839         0.010902   
    133. D(H   6,O   5,C   4,H  15)    -69.9090         0.021480   
    134. D(H   6,O   5,C   4,C   7)     48.5951         0.021480   
    135. D(H   6,O   5,C   4,C   3)    172.9328         0.021480   
    136. D(C  10,C   7,C   4,H  15)    -63.7995         0.012350   
    137. D(C  10,C   7,C   4,O   5)    175.7689         0.012350   
    138. D(C  10,C   7,C   4,C   3)     53.7247         0.012350   
    139. D(O   8,C   7,C   4,H  15)     56.9671         0.012350   
    140. D(O   8,C   7,C   4,O   5)    -63.4644         0.012350   
    141. D(O   8,C   7,C   4,C   3)    174.4913         0.012350   
    142. D(H   9,O   8,C   7,H  14)     67.7092         0.022222   
    143. D(H   9,O   8,C   7,C  10)    -53.8357         0.022222   
    144. D(H   9,O   8,C   7,C   4)   -173.0512         0.022222   
    145. D(O  11,C  10,C   1,O   0)    -67.8800         0.011933   
    146. D(C   7,C  10,C   1,H  22)    -67.4672         0.011933   
    147. D(C   7,C  10,C   1,O   2)     56.7224         0.011933   
    148. D(C   7,C  10,C   1,O   0)    173.0808         0.011933   
    149. D(O  11,C  10,C   7,O   8)     65.5702         0.012706   
    150. D(O  11,C  10,C   7,C   4)   -176.7057         0.012706   
    151. D(C   1,C  10,C   7,H  14)     64.1887         0.012706   
    152. D(C   1,C  10,C   7,O   8)   -173.4849         0.012706   
    153. D(C   1,C  10,C   7,C   4)    -55.7608         0.012706   
    154. D(O  11,C  10,C   1,H  22)     51.5720         0.011933   
    155. D(O  11,C  10,C   7,H  14)    -56.7562         0.012706   
    156. D(O  11,C  10,C   1,O   2)    175.7616         0.011933   
    157. D(H  12,O  11,C  10,H  13)    -63.8677         0.022371   
    158. D(H  12,O  11,C  10,C   7)    176.0205         0.022371   
    159. D(H  12,O  11,C  10,C   1)     56.1280         0.022371   
    160. D(H  19,C  16,C   3,H  21)     57.6917         0.012202   
    161. D(H  19,C  16,C   3,C   4)    175.7155         0.012202   
    162. D(H  19,C  16,C   3,O   2)    -55.8043         0.012202   
    163. D(O  17,C  16,C   3,C   4)    -63.6117         0.012202   
    164. D(O  17,C  16,C   3,O   2)     64.8685         0.012202   
    165. D(O  17,C  16,C   3,H  21)    178.3644         0.012202   
    166. D(H  18,O  17,C  16,H  20)     43.7980         0.019940   
    167. D(H  18,O  17,C  16,H  19)    -77.5150         0.019940   
    168. D(H  18,O  17,C  16,C   3)    163.3374         0.019940   
    169. D(H  39,C  23,O   0,C   1)      0.2009         0.030651   
    170. D(O  33,C  23,O   0,C   1)    120.1518         0.030651   
    171. D(C  24,C  23,O   0,C   1)   -118.8033         0.030651   
    172. D(N  26,C  24,C  23,O  33)    -35.0300         0.010000   
    173. D(N  26,C  24,C  23,O   0)   -153.8385         0.010000   
    174. D(O  25,C  24,C  23,H  39)    -92.3950         0.010000   
    175. D(O  25,C  24,C  23,O  33)    147.8840         0.010000   
    176. D(O  25,C  24,C  23,O   0)     29.0754         0.010000   
    177. D(H  38,N  26,C  24,O  25)      1.7466         0.032861   
    178. D(H  38,N  26,C  24,C  23)   -175.2831         0.032861   
    179. D(C  27,N  26,C  24,O  25)   -178.8299         0.032861   
    180. D(C  27,N  26,C  24,C  23)      4.1405         0.032861   
    181. D(C  32,C  27,N  26,H  38)   -166.4606         0.022944   
    182. D(C  32,C  27,N  26,C  24)     14.1333         0.022944   
    183. D(C  28,C  27,N  26,H  38)     11.7456         0.022944   
    184. D(C  28,C  27,N  26,C  24)   -167.6605         0.022944   
    185. D(H  37,C  28,C  27,C  32)   -179.7611         0.028017   
    186. D(H  37,C  28,C  27,N  26)      2.0677         0.028017   
    187. D(C  29,C  28,C  27,C  32)      0.9884         0.028017   
    188. D(C  29,C  28,C  27,N  26)   -177.1827         0.028017   
    189. D(H  36,C  29,C  28,H  37)      0.3450         0.027845   
    190. D(H  36,C  29,C  28,C  27)    179.5918         0.027845   
    191. D(C  30,C  29,C  28,H  37)   -179.6520         0.027845   
    192. D(C  30,C  29,C  28,C  27)     -0.4052         0.027845   
    193. D(Cl 35,C  30,C  29,H  36)      0.0090         0.027954   
    194. D(Cl 35,C  30,C  29,C  28)   -179.9940         0.027954   
    195. D(C  31,C  30,C  29,H  36)    179.6603         0.027954   
    196. D(C  31,C  30,C  29,C  28)     -0.3427         0.027954   
    197. D(H  34,C  31,C  30,Cl 35)     -0.3164         0.027861   
    198. D(H  34,C  31,C  30,C  29)   -179.9689         0.027861   
    199. D(C  32,C  31,C  30,Cl 35)   -179.8562         0.027861   
    200. D(C  32,C  31,C  30,C  29)      0.4913         0.027861   
    201. D(O  33,C  32,C  31,C  30)    177.3229         0.028537   
    202. D(C  27,C  32,C  31,H  34)   -179.4466         0.028537   
    203. D(C  27,C  32,C  31,C  30)      0.1032         0.028537   
    204. D(O  33,C  32,C  27,C  28)   -178.0347         0.026119   
    205. D(O  33,C  32,C  27,N  26)      0.2241         0.026119   
    206. D(C  31,C  32,C  27,C  28)     -0.8380         0.026119   
    207. D(O  33,C  32,C  31,H  34)     -2.2269         0.028537   
    208. D(C  31,C  32,C  27,N  26)    177.4208         0.026119   
    209. D(C  23,O  33,C  32,C  31)    149.5609         0.028599   
    210. D(C  23,O  33,C  32,C  27)    -33.2091         0.028599   
    211. D(C  32,O  33,C  23,H  39)    -69.5281         0.020345   
    212. D(C  32,O  33,C  23,C  24)     49.4949         0.020345   
    213. D(C  32,O  33,C  23,O   0)    168.7701         0.020345   
    -----------------------------------------------------------------

Number of atoms                         .... 40
Number of degrees of freedom            .... 213


         *************************************************************
         *                GEOMETRY OPTIMIZATION CYCLE   1            *
         *************************************************************
---------------------------------
CARTESIAN COORDINATES (ANGSTROEM)
---------------------------------
  O    -0.605200    0.592200   -0.768500
  C    -1.750600    0.046100   -0.166400
  O    -1.996700   -1.179000   -0.806100
  C    -3.214100   -1.835600   -0.473500
  C    -4.405000   -0.881600   -0.622700
  O    -5.560400   -1.533900   -0.146400
  H    -6.269500   -0.880200   -0.145000
  C    -4.179900    0.439500    0.084500
  O    -5.283900    1.266100   -0.236300
  H    -5.098900    2.144000    0.116300
  C    -2.877500    1.041600   -0.390000
  O    -2.657600    2.223900    0.335400
  H    -1.794100    2.596800    0.092400
  H    -2.938900    1.237000   -1.468800
  H    -4.126000    0.276100    1.164600
  H    -4.511900   -0.656500   -1.692100
  C    -3.144700   -2.573000    0.850400
  O    -2.964300   -1.662200    1.924100
  H    -3.181500   -2.101500    2.749600
  H    -2.302800   -3.271200    0.799500
  H    -4.073700   -3.136100    0.964400
  H    -3.322400   -2.612100   -1.234100
  H    -1.584200   -0.092600    0.907000
  C     0.556100    0.650000   -0.055300
  C     0.975000    2.125700    0.086900
  O     0.163900    3.022700    0.102200
  N     2.306700    2.314300    0.253500
  C     3.236200    1.266800    0.209400
  C     4.550000    1.418200    0.622300
  C     5.445300    0.366500    0.503900
  C     5.008600   -0.838200   -0.023600
  C     3.694300   -1.013400   -0.427800
  C     2.810600    0.043800   -0.307900
  O     1.533400   -0.102200   -0.752800
  H     3.348700   -1.951000   -0.839300
  Cl    6.120300   -2.156000   -0.174500
  H     6.472900    0.478500    0.817400
  H     4.877700    2.367600    1.027400
  H     2.617200    3.260100    0.424200
  H     0.436800    0.233800    0.956000

----------------------------
CARTESIAN COORDINATES (A.U.)
----------------------------
  NO LB    ZA    FRAG    MASS        X           Y           Z
   0 O   8.0000    0    15.999   -1.143662    1.119096   -1.452255
   1 C   6.0000    0    12.011   -3.308155    0.087116   -0.314450
   2 O   8.0000    0    15.999   -3.773216   -2.227987   -1.523308
   3 C   6.0000    0    12.011   -6.073769   -3.468781   -0.894785
   4 C   6.0000    0    12.011   -8.324244   -1.665983   -1.176732
   5 O   8.0000    0    15.999  -10.507633   -2.898651   -0.276656
   6 H   1.0000    0     1.008  -11.847638   -1.663337   -0.274010
   7 C   6.0000    0    12.011   -7.898866    0.830535    0.159682
   8 O   8.0000    0    15.999   -9.985124    2.392582   -0.446542
   9 H   1.0000    0     1.008   -9.635525    4.051573    0.219775
  10 C   6.0000    0    12.011   -5.437687    1.968339   -0.736993
  11 O   8.0000    0    15.999   -5.022136    4.202562    0.633814
  12 H   1.0000    0     1.008   -3.390358    4.907241    0.174611
  13 H   1.0000    0     1.008   -5.553716    2.337591   -2.775630
  14 H   1.0000    0     1.008   -7.797010    0.521753    2.200775
  15 H   1.0000    0     1.008   -8.526255   -1.240605   -3.197606
  16 C   6.0000    0    12.011   -5.942622   -4.862265    1.607023
  17 O   8.0000    0    15.999   -5.601715   -3.141103    3.636022
  18 H   1.0000    0     1.008   -6.012164   -3.971259    5.195991
  19 H   1.0000    0     1.008   -4.351661   -6.181672    1.510836
  20 H   1.0000    0     1.008   -7.698177   -5.926370    1.822452
  21 H   1.0000    0     1.008   -6.278426   -4.936154   -2.332111
  22 H   1.0000    0     1.008   -2.993704   -0.174989    1.713982
  23 C   6.0000    0    12.011    1.050877    1.228322   -0.104502
  24 C   6.0000    0    12.011    1.842483    4.016991    0.164217
  25 O   8.0000    0    15.999    0.309726    5.712075    0.193130
  26 N   7.0000    0    14.007    4.359031    4.373393    0.479046
  27 C   6.0000    0    12.011    6.115532    2.393905    0.395709
  28 C   6.0000    0    12.011    8.598254    2.680010    1.175977
  29 C   6.0000    0    12.011   10.290126    0.692585    0.952233
  30 C   6.0000    0    12.011    9.464882   -1.583968   -0.044598
  31 C   6.0000    0    12.011    6.981215   -1.915048   -0.808425
  32 C   6.0000    0    12.011    5.311264    0.082770   -0.581847
  33 O   8.0000    0    15.999    2.897706   -0.193130   -1.422586
  34 H   1.0000    0     1.008    6.328126   -3.686856   -1.586047
  35 Cl 17.0000    0    35.453   11.565691   -4.074250   -0.329757
  36 H   1.0000    0     1.008   12.232008    0.904234    1.544662
  37 H   1.0000    0     1.008    9.217517    4.474116    1.941505
  38 H   1.0000    0     1.008    4.945791    6.160696    0.801622
  39 H   1.0000    0     1.008    0.825432    0.441818    1.806578

      -----------------------------------------------------------      
     |                   =====================                   |     
     |                           x T B                           |     
     |                   =====================                   |     
     |                         S. Grimme                         |     
     |          Mulliken Center for Theoretical Chemistry        |     
     |                    University of Bonn                     |     
      -----------------------------------------------------------      

   * xtb version 6.7.1 (edcfbbe) compiled by 'albert@albert-system' on 2024-07-22

   xtb is free software: you can redistribute it and/or modify it under
   the terms of the GNU Lesser General Public License as published by
   the Free Software Foundation, either version 3 of the License, or
   (at your option) any later version.
   
   xtb is distributed in the hope that it will be useful,
   but WITHOUT ANY WARRANTY; without even the implied warranty of
   MERCHANTABILITY or FITNESS FOR A PARTICULAR PURPOSE.  See the
   GNU Lesser General Public License for more details.
   
   Cite this work as:
   * C. Bannwarth, E. Caldeweyher, S. Ehlert, A. Hansen, P. Pracht,
     J. Seibert, S. Spicher, S. Grimme, WIREs Comput. Mol. Sci., 2020, 11,
     e01493. DOI: 10.1002/wcms.1493
   
   for GFN2-xTB:
   * C. Bannwarth, S. Ehlert and S. Grimme., J. Chem. Theory Comput., 2019,
     15, 1652-1671. DOI: 10.1021/acs.jctc.8b01176
   for GFN1-xTB:
   * S. Grimme, C. Bannwarth, P. Shushkov, J. Chem. Theory Comput., 2017,
     13, 1989-2009. DOI: 10.1021/acs.jctc.7b00118
   for GFN0-xTB:
   * P. Pracht, E. Caldeweyher, S. Ehlert, S. Grimme, ChemRxiv, 2019, preprint.
     DOI: 10.26434/chemrxiv.8326202.v1
   for GFN-FF:
   * S. Spicher and S. Grimme, Angew. Chem. Int. Ed., 2020, 59, 15665-15673.
     DOI: 10.1002/anie.202004239
   
   for ALPB and GBSA implicit solvation:
   * S. Ehlert, M. Stahn, S. Spicher, S. Grimme, J. Chem. Theory Comput.,
     2021, 17, 4250-4261. DOI: 10.1021/acs.jctc.1c00471
   
   for ddCOSMO and CPCM-X implicit solvation:
   * M. Stahn, S. Ehlert, S. Grimme, J. Phys. Chem. A,
     2023, XX, XXXX-XXXX. DOI: 10.1021/acs.jpca.3c04382
   
   for DFT-D4:
   * E. Caldeweyher, C. Bannwarth and S. Grimme, J. Chem. Phys., 2017,
     147, 034112. DOI: 10.1063/1.4993215
   * E. Caldeweyher, S. Ehlert, A. Hansen, H. Neugebauer, S. Spicher,
     C. Bannwarth and S. Grimme, J. Chem. Phys., 2019, 150, 154122.
     DOI: 10.1063/1.5090222
   * E. Caldeweyher, J.-M. Mewes, S. Ehlert and S. Grimme, Phys. Chem. Chem. Phys.
     2020, 22, 8499-8512. DOI: 10.1039/D0CP00502A
   
   for sTDA-xTB:
   * S. Grimme and C. Bannwarth, J. Chem. Phys., 2016, 145, 054103.
     DOI: 10.1063/1.4959605
   
   in the mass-spec context:
   * V. Asgeirsson, C. Bauer and S. Grimme, Chem. Sci., 2017, 8, 4879.
     DOI: 10.1039/c7sc00601b
   * J. Koopman and S. Grimme, ACS Omega 2019, 4, 12, 15120-15133.
     DOI: 10.1021/acsomega.9b02011
   
   for metadynamics refer to:
   * S. Grimme, J. Chem. Theory Comput., 2019, 155, 2847-2862
     DOI: 10.1021/acs.jctc.9b00143
   
   for SPH calculations refer to:
   * S. Spicher and S. Grimme, J. Chem. Theory Comput., 2021, 17, 1701-1714
     DOI: 10.1021/acs.jctc.0c01306
   
   for ONIOM refer to:
   * C. Plett, A. Katbashev, S. Ehlert, S. Grimme, M. Bursch,
     Phys. Chem. Chem. Phys., 2023, 25, 17860-17868. DOI: 10.1039/D3CP02178E
   
   for DIPRO refer to:
   * J. Kohn, N. Gildemeister, S. Grimme, D. Fazzi, A. Hansen,
     J. Chem. Phys., 2023, just accepted.
   
   for PTB refer to:
   * S. Grimme, M. Mueller, A. Hansen, J. Chem. Phys., 2023, 158, 124111.
     DOI: 10.1063/5.0137838
   
   with help from (in alphabetical order)
   P. Atkinson, C. Bannwarth, F. Bohle, G. Brandenburg, E. Caldeweyher
   M. Checinski, S. Dohm, S. Ehlert, S. Ehrlich, I. Gerasimov, C. Hölzer
   A. Katbashev, J. Kohn, J. Koopman, C. Lavigne, S. Lehtola, F. März, M. Müller,
   F. Musil, H. Neugebauer, J. Pisarek, C. Plett, P. Pracht, F. Pultar,
   J. Seibert, P. Shushkov, S. Spicher, M. Stahn, M. Steiner, T. Strunk,
   J. Stückrath, T. Rose, and J. Unsleber
   
 * started run on 2025/06/25 at 09:51:05.219     
   ID    Z sym.   atoms
    1    8 O      1, 3, 6, 9, 12, 18, 26, 34
    2    6 C      2, 4, 5, 8, 11, 17, 24, 25, 28-33
    3    1 H      7, 10, 13-16, 19-23, 35, 37-40
    4    7 N      27
    5   17 Cl     36

           -------------------------------------------------
          |                Calculation Setup                |
           -------------------------------------------------

          program call               : /scratch/aweiland/job_40613365/orca_xtb_wrapper/otool_xtb xtb_test2_XTB.xyz --grad -c 0 -u 0 -P 4 --namespace xtb_test2 --input xtb_test2_XTB.input.tmp --acc 0.200000
          hostname                   : exp-3-02
          calculation namespace      : xtb_test2
          coordinate file            : xtb_test2_XTB.xyz
          omp threads                :                     4


           -------------------------------------------------
          |                 G F N 2 - x T B                 |
           -------------------------------------------------

        Reference                      10.1021/acs.jctc.8b01176
      * Hamiltonian:
        H0-scaling (s, p, d)           1.850000    2.230000    2.230000
        zeta-weighting                 0.500000
      * Dispersion:
        s8                             2.700000
        a1                             0.520000
        a2                             5.000000
        s9                             5.000000
      * Repulsion:
        kExp                           1.500000    1.000000
        rExp                           1.000000
      * Coulomb:
        alpha                          2.000000
        third order                    shell-resolved
        anisotropic                    true
        a3                             3.000000
        a5                             4.000000
        cn-shift                       1.200000
        cn-exp                         4.000000
        max-rad                        5.000000


          ...................................................
          :                      SETUP                      :
          :.................................................:
          :  # basis functions                 118          :
          :  # atomic orbitals                 117          :
          :  # shells                           65          :
          :  # electrons                       132          :
          :  max. iterations                   250          :
          :  Hamiltonian                  GFN2-xTB          :
          :  restarted?                      false          :
          :  GBSA solvation                  false          :
          :  PC potential                    false          :
          :  electronic temp.          300.0000000     K    :
          :  accuracy                    0.2000000          :
          :  -> integral cutoff          0.3198970E+02      :
          :  -> integral neglect         0.2000000E-08      :
          :  -> SCF convergence          0.2000000E-06 Eh   :
          :  -> wf. convergence          0.2000000E-04 e    :
          :  Broyden damping             0.4000000          :
          :  net charge                          0          :
          :  unpaired electrons                  0          :
          ...................................................

 iter      E             dE          RMSdq      gap      omega  full diag
   1    -78.7773054 -0.787773E+02  0.492E+00    3.34       0.0  T
   2    -78.8725992 -0.952938E-01  0.275E+00    3.51       1.0  T
   3    -78.8709196  0.167962E-02  0.110E+00    3.38       1.0  T
   4    -78.8787466 -0.782699E-02  0.312E-01    3.21       1.0  T
   5    -78.8807254 -0.197880E-02  0.103E-01    3.30       1.0  T
   6    -78.8807773 -0.518858E-04  0.443E-02    3.34       1.0  T
   7    -78.8807934 -0.161581E-04  0.203E-02    3.34       1.0  T
   8    -78.8807972 -0.376750E-05  0.623E-03    3.34       2.5  T
   9    -78.8807974 -0.190160E-06  0.315E-03    3.34       5.0  T
  10    -78.8807975 -0.979926E-07  0.198E-03    3.34       8.0  T
  11    -78.8807975 -0.265525E-07  0.129E-03    3.34      12.3  T
  12    -78.8807975 -0.180473E-07  0.894E-04    3.34      17.7  T
  13    -78.8807975 -0.117330E-07  0.341E-04    3.34      46.3  T
  14    -78.8807975 -0.148964E-08  0.160E-04    3.34      99.0  T
  15    -78.8807975 -0.224517E-09  0.720E-05    3.34     219.7  T

   *** convergence criteria satisfied after 15 iterations ***

         #    Occupation            Energy/Eh            Energy/eV
      -------------------------------------------------------------
         1        2.0000           -1.0662570             -29.0143
       ...           ...                  ...                  ...
        60        2.0000           -0.4288207             -11.6688
        61        2.0000           -0.4242397             -11.5442
        62        2.0000           -0.4174839             -11.3603
        63        2.0000           -0.4131267             -11.2417
        64        2.0000           -0.4097224             -11.1491
        65        2.0000           -0.4029548             -10.9650
        66        2.0000           -0.3993212             -10.8661 (HOMO)
        67                         -0.2766017              -7.5267 (LUMO)
        68                         -0.2580849              -7.0228
        69                         -0.2309053              -6.2833
        70                         -0.1546142              -4.2073
        71                         -0.1266129              -3.4453
       ...                                ...                  ...
       117                          0.6388502              17.3840
      -------------------------------------------------------------
                  HL-Gap            0.1227195 Eh            3.3394 eV
             Fermi-level           -0.3379614 Eh           -9.1964 eV

 SCC (total)                   0 d,  0 h,  0 min,  0.067 sec
 SCC setup                      ...        0 min,  0.003 sec (  4.165%)
 Dispersion                     ...        0 min,  0.001 sec (  1.332%)
 classical contributions        ...        0 min,  0.000 sec (  0.058%)
 integral evaluation            ...        0 min,  0.019 sec ( 27.692%)
 iterations                     ...        0 min,  0.035 sec ( 51.462%)
 molecular gradient             ...        0 min,  0.010 sec ( 14.561%)
 printout                       ...        0 min,  0.000 sec (  0.705%)

         :::::::::::::::::::::::::::::::::::::::::::::::::::::
         ::                     SUMMARY                     ::
         :::::::::::::::::::::::::::::::::::::::::::::::::::::
         :: total energy             -78.165758470288 Eh    ::
         :: gradient norm              0.036334387049 Eh/a0 ::
         :: HOMO-LUMO gap              3.339368520276 eV    ::
         ::.................................................::
         :: SCC energy               -78.880779688512 Eh    ::
         :: -> isotropic ES            0.184116963052 Eh    ::
         :: -> anisotropic ES         -0.006616997416 Eh    ::
         :: -> anisotropic XC         -0.006675254735 Eh    ::
         :: -> dispersion             -0.042913550354 Eh    ::
         :: repulsion energy           0.715021218224 Eh    ::
         :: add. restraining           0.000000000000 Eh    ::
         :: total charge              -0.000000000000 e     ::
         :::::::::::::::::::::::::::::::::::::::::::::::::::::


Property printout bound to 'properties.out'

           -------------------------------------------------
          | TOTAL ENERGY              -78.165758470288 Eh   |
          | GRADIENT NORM               0.036334387049 Eh/α |
          | HOMO-LUMO GAP               3.339368520276 eV   |
           -------------------------------------------------

------------------------------------------------------------------------
 * finished run on 2025/06/25 at 09:51:05.430     
------------------------------------------------------------------------
 total:
 * wall-time:     0 d,  0 h,  0 min,  0.211 sec
 *  cpu-time:     0 d,  0 h,  0 min,  0.635 sec
 * ratio c/w:     3.011 speedup
 SCF:
 * wall-time:     0 d,  0 h,  0 min,  0.068 sec
 *  cpu-time:     0 d,  0 h,  0 min,  0.236 sec
 * ratio c/w:     3.479 speedup


-------------------------   --------------------
FINAL SINGLE POINT ENERGY       -78.165758470290
-------------------------   --------------------


-------------
DIPOLE MOMENT
-------------
                                X             Y             Z
Total Dipole Moment    :      1.20600       0.13900       1.36400
                        -----------------------------------------
Magnitude (a.u.)       :      1.82599
Magnitude (Debye)      :      4.64131


------------------
CARTESIAN GRADIENT
------------------

   1   O   :    0.008220510   -0.002635092    0.004548757
   2   C   :   -0.004683655    0.006322849    0.005199465
   3   O   :    0.001016447    0.004626067    0.000795013
   4   C   :   -0.006109562   -0.005711749    0.008724601
   5   C   :    0.006229905    0.008747754   -0.000059506
   6   O   :   -0.002089321    0.000132567    0.001625814
   7   H   :    0.000192904   -0.001621361   -0.000018887
   8   C   :    0.008982852   -0.002581991   -0.002283365
   9   O   :   -0.000163543    0.001438661   -0.002227614
  10   H   :   -0.001600207   -0.000426756    0.000353379
  11   C   :   -0.000853230   -0.008622471   -0.000594984
  12   O   :    0.001936151   -0.001068143    0.000793661
  13   H   :   -0.002064398    0.000004466   -0.000187800
  14   H   :   -0.000264873   -0.001704441    0.001837615
  15   H   :    0.000128996   -0.000480175   -0.003468826
  16   H   :    0.001495764   -0.000327537    0.002672314
  17   C   :    0.000675407   -0.003344513   -0.010288067
  18   O   :   -0.000293743    0.001006349    0.002458929
  19   H   :    0.000667197    0.001959400   -0.001860153
  20   H   :   -0.002146742    0.000929028   -0.001168580
  21   H   :    0.001550610   -0.000052678   -0.000555332
  22   H   :   -0.001312871    0.001156620    0.002822561
  23   H   :    0.000578910    0.000943750   -0.004660998
  24   C   :   -0.010525007   -0.000258156    0.005373123
  25   C   :   -0.005798169   -0.000505629   -0.002964987
  26   O   :    0.000835334   -0.001870198    0.000698243
  27   N   :    0.004751870    0.003397847   -0.000220090
  28   C   :   -0.000278971   -0.005602537   -0.001902121
  29   C   :   -0.002984873   -0.002014317   -0.001193071
  30   C   :    0.000003786   -0.001388371   -0.001101442
  31   C   :   -0.002461682    0.002670914    0.000332596
  32   C   :   -0.001692272    0.003427843    0.001023809
  33   C   :    0.004182824    0.000375278    0.003446629
  34   O   :    0.002172479    0.005717773   -0.002318158
  35   H   :   -0.000680840   -0.002324224   -0.000538403
  36   Cl  :    0.002079827   -0.002472943   -0.000287112
  37   H   :    0.001852015   -0.000334558    0.000433718
  38   H   :    0.000518734    0.002035745    0.001131683
  39   H   :   -0.002641832   -0.001295769   -0.000312880
  40   H   :    0.000573268    0.001750698   -0.006059530

Difference to translation invariance:
           :   -0.0000000000    0.0000000000    0.0000000000

Difference to rotation invariance:
           :   -0.0000001174   -0.0000004616    0.0000000481

Norm of the Cartesian gradient     ...    0.0363343870
RMS gradient                       ...    0.0033168606
MAX gradient                       ...    0.0105250067
------------------------------------------------------------------------------
                         ORCA GEOMETRY RELAXATION STEP
------------------------------------------------------------------------------

Reading the OPT-File                    .... done
Getting information on internals        .... done
Copying old internal coords+grads       .... done
Making the new internal coordinates     .... (2022 redundants) done
Validating the new internal coordinates .... (2022 redundants) done
Calculating the B-matrix                .... done
Calculating the G,G- and P matrices     .... done
Transforming gradient to internals      .... done
Projecting the internal gradient        .... done
Number of atoms                         ....  40
Number of internal coordinates          .... 213
Current Energy                          ....   -78.165758470 Eh
Current gradient norm                   ....     0.036334387 Eh/bohr
Maximum allowed component of the step   ....  0.300
Current trust radius                    ....  0.300
Evaluating the initial hessian          ....  (Almloef) done
Projecting the Hessian                  .... done
Forming the augmented Hessian           .... done
Diagonalizing the augmented Hessian     .... done
Last element of RFO vector              ....  0.983678123
Lowest eigenvalues of augmented Hessian:
 -0.003192026  0.012209416  0.013689547  0.016438042  0.017380898
Length of the computed step             ....  0.182922714
The final length of the internal step   ....  0.182922714
Converting the step to Cartesian space:
 Initial RMS(Int)=    0.0125336579
Transforming coordinates:
 Iter   0:  RMS(Cart)=    0.0564676767 RMS(Int)=    0.7452519027
done
Storing new coordinates                 .... done

                                .--------------------.
          ----------------------|Geometry convergence|-------------------------
          Item                value                   Tolerance       Converged
          ---------------------------------------------------------------------
          RMS gradient        0.0021299067            0.0001000000      NO
          MAX gradient        0.0104985923            0.0003000000      NO
          RMS step            0.0125336579            0.0020000000      NO
          MAX step            0.0472844342            0.0040000000      NO
          -------------------------------------------------------------------------
          ........................................................
          Max(Bonds)      0.0136      Max(Angles)    1.11
          Max(Dihed)        2.71      Max(Improp)    0.00
          ---------------------------------------------------------------------

The optimization has not yet converged - more geometry cycles are needed


    ---------------------------------------------------------------------------
                         Redundant Internal Coordinates
                            (Angstroem and degrees)

        Definition                    Value    dE/dq     Step     New-Value
    ----------------------------------------------------------------------------
     1. B(C   1,O   0)                1.4045 -0.001697  0.0019    1.4064   
     2. B(O   2,C   1)                1.4038 -0.000712  0.0005    1.4043   
     3. B(C   3,O   2)                1.4226  0.002609 -0.0035    1.4191   
     4. B(C   4,C   3)                1.5332 -0.004367  0.0049    1.5381   
     5. B(O   5,C   4)                1.4097  0.003042 -0.0029    1.4069   
     6. B(H   6,O   5)                0.9644 -0.001343  0.0013    0.9657   
     7. B(C   7,C   4)                1.5153 -0.007932  0.0111    1.5263   
     8. B(O   8,H   6)                2.3635 -0.000330  0.0026    2.3662   
     9. B(O   8,C   7)                1.4160  0.002461 -0.0025    1.4135   
    10. B(H   9,O   8)                0.9640 -0.000566  0.0006    0.9646   
    11. B(C  10,C   7)                1.5113 -0.009027  0.0128    1.5241   
    12. B(C  10,C   1)                1.5202 -0.008503  0.0130    1.5331   
    13. B(O  11,C  10)                1.4044 -0.000749  0.0007    1.4051   
    14. B(H  12,O  11)                0.9715 -0.002203  0.0021    0.9735   
    15. B(H  13,C  10)                1.0981 -0.002094  0.0031    1.1012   
    16. B(H  14,C   7)                1.0937 -0.003348  0.0049    1.0987   
    17. B(H  15,C   4)                1.0981 -0.002815  0.0042    1.1023   
    18. B(C  16,C   3)                1.5170 -0.010182  0.0136    1.5306   
    19. B(O  17,C  16)                1.4195  0.002403 -0.0025    1.4170   
    20. B(H  18,O  17)                0.9600 -0.002647  0.0027    0.9627   
    21. B(H  19,C  16)                1.0949 -0.002189  0.0032    1.0982   
    22. B(H  20,C  16)                1.0923 -0.001350  0.0020    1.0943   
    23. B(H  21,C   3)                1.0923 -0.002657  0.0039    1.0962   
    24. B(H  22,C   1)                1.0950 -0.004600  0.0068    1.1019   
    25. B(C  23,O   0)                1.3640 -0.010499  0.0092    1.3732   
    26. B(C  24,C  23)                1.5406 -0.003169  0.0045    1.5451   
    27. B(O  25,C  24)                1.2094 -0.002157  0.0010    1.2104   
    28. B(O  25,H  12)                2.0038 -0.000439  0.0071    2.0109   
    29. B(N  26,C  24)                1.3553  0.003916 -0.0041    1.3512   
    30. B(C  27,N  26)                1.4011  0.003389 -0.0040    1.3971   
    31. B(C  28,C  27)                1.3855 -0.000577  0.0005    1.3860   
    32. B(C  29,C  28)                1.3862  0.002210 -0.0021    1.3841   
    33. B(C  30,C  29)                1.3857 -0.000761  0.0003    1.3860   
    34. B(C  31,C  30)                1.3862 -0.000737  0.0005    1.3867   
    35. B(C  32,C  31)                1.3831 -0.002443  0.0023    1.3854   
    36. B(C  32,C  27)                1.3944 -0.005168  0.0051    1.3996   
    37. B(O  33,C  32)                1.3603 -0.001319  0.0020    1.3623   
    38. B(O  33,C  23)                1.4168 -0.000440  0.0009    1.4178   
    39. B(H  34,C  31)                1.0807  0.002439 -0.0034    1.0772   
    40. B(Cl 35,C  30)                1.7307  0.003244 -0.0042    1.7264   
    41. B(H  36,C  29)                1.0802  0.001853 -0.0026    1.0776   
    42. B(H  37,C  28)                1.0830  0.002365 -0.0034    1.0796   
    43. B(H  38,N  26)                1.0100 -0.002078  0.0025    1.0125   
    44. B(H  39,C  23)                1.1001 -0.006295  0.0095    1.1096   
    45. A(C   1,O   0,C  23)          119.12 -0.001276    0.18    119.30   
    46. A(O   2,C   1,H  22)          111.27  0.001155   -0.41    110.87   
    47. A(O   0,C   1,H  22)          110.21 -0.000815    0.11    110.32   
    48. A(O   0,C   1,O   2)          106.67 -0.000127    0.19    106.87   
    49. A(O   0,C   1,C  10)          106.67  0.000401    0.08    106.75   
    50. A(O   2,C   1,C  10)          111.99 -0.002349    0.44    112.44   
    51. A(C  10,C   1,H  22)          109.86  0.001628   -0.38    109.48   
    52. A(C   1,O   2,C   3)          116.51  0.000846   -0.47    116.03   
    53. A(C   4,C   3,H  21)          107.31 -0.000549    0.41    107.72   
    54. A(O   2,C   3,C  16)          112.91 -0.000324   -0.06    112.84   
    55. A(C   4,C   3,C  16)          115.02  0.005762   -1.11    113.91   
    56. A(O   2,C   3,H  21)          104.49  0.002571   -0.31    104.17   
    57. A(O   2,C   3,C   4)          110.78 -0.004586    0.47    111.25   
    58. A(C  16,C   3,H  21)          105.47 -0.003056    0.73    106.20   
    59. A(C   3,C   4,C   7)          112.44  0.002413   -0.77    111.67   
    60. A(C   7,C   4,H  15)          106.87 -0.000954    0.26    107.13   
    61. A(C   3,C   4,O   5)          108.41 -0.002352    0.36    108.77   
    62. A(O   5,C   4,H  15)          110.13  0.000924   -0.12    110.01   
    63. A(C   3,C   4,H  15)          107.33 -0.000771    0.42    107.76   
    64. A(O   5,C   4,C   7)          111.56  0.000744   -0.13    111.43   
    65. A(C   4,O   5,H   6)          106.83  0.002342   -0.30    106.52   
    66. A(O   8,C   7,C  10)          111.61 -0.000057   -0.01    111.59   
    67. A(C   4,C   7,C  10)          109.20  0.000931   -0.04    109.15   
    68. A(C  10,C   7,H  14)          109.09  0.000421   -0.24    108.85   
    69. A(O   8,C   7,H  14)          110.45  0.000806   -0.31    110.14   
    70. A(C   4,C   7,H  14)          109.75 -0.000331    0.09    109.85   
    71. A(C   4,C   7,O   8)          106.70 -0.001809    0.53    107.23   
    72. A(C   7,O   8,H   9)          107.41  0.002077   -0.33    107.08   
    73. A(C   1,C  10,C   7)          109.38  0.001922    0.04    109.41   
    74. A(O  11,C  10,H  13)          111.49  0.001786   -0.40    111.09   
    75. A(C   7,C  10,H  13)          109.34 -0.001433    0.18    109.52   
    76. A(C   1,C  10,H  13)          107.61 -0.000755   -0.02    107.59   
    77. A(C   1,C  10,O  11)          111.05 -0.000395    0.01    111.06   
    78. A(C   7,C  10,O  11)          107.95 -0.001105    0.20    108.15   
    79. A(C  10,O  11,H  12)          109.46  0.000332   -0.05    109.40   
    80. A(H  19,C  16,H  20)          109.27 -0.000768    0.04    109.32   
    81. A(C   3,C  16,O  17)          110.73 -0.004088    0.67    111.40   
    82. A(C   3,C  16,H  19)          107.73 -0.000214    0.15    107.89   
    83. A(O  17,C  16,H  20)          111.10  0.001817   -0.34    110.75   
    84. A(C   3,C  16,H  20)          107.62  0.001115   -0.17    107.45   
    85. A(O  17,C  16,H  19)          110.28  0.002065   -0.33    109.95   
    86. A(C  16,O  17,H  18)          109.15  0.001543   -0.25    108.91   
    87. A(C  24,C  23,O  33)          111.50 -0.001413    0.66    112.15   
    88. A(O   0,C  23,O  33)          107.90 -0.000998    0.31    108.21   
    89. A(O   0,C  23,H  39)          111.86 -0.000617   -0.06    111.80   
    90. A(O   0,C  23,C  24)          108.68  0.001426   -0.30    108.38   
    91. A(O  33,C  23,H  39)          109.06  0.000183   -0.15    108.91   
    92. A(C  24,C  23,H  39)          107.88  0.001383   -0.44    107.44   
    93. A(O  25,C  24,N  26)          123.66  0.000675   -0.13    123.52   
    94. A(C  23,C  24,N  26)          114.32 -0.000920    0.22    114.54   
    95. A(C  23,C  24,O  25)          121.95  0.000238   -0.04    121.92   
    96. A(C  24,N  26,C  27)          122.95 -0.000203    0.07    123.03   
    97. A(C  27,N  26,H  38)          120.10  0.002108   -0.35    119.74   
    98. A(C  24,N  26,H  38)          116.95 -0.001905    0.29    117.24   
    99. A(C  28,C  27,C  32)          119.72 -0.000934    0.15    119.87   
   100. A(N  26,C  27,C  32)          117.70 -0.000487    0.18    117.89   
   101. A(N  26,C  27,C  28)          122.55  0.001416   -0.34    122.21   
   102. A(C  27,C  28,C  29)          120.27  0.000149   -0.01    120.26   
   103. A(C  29,C  28,H  37)          120.11  0.000064   -0.02    120.09   
   104. A(C  27,C  28,H  37)          119.62 -0.000213    0.03    119.64   
   105. A(C  28,C  29,C  30)          119.24 -0.000919    0.07    119.31   
   106. A(C  30,C  29,H  36)          120.03 -0.000094    0.05    120.08   
   107. A(C  28,C  29,H  36)          120.73  0.001013   -0.12    120.60   
   108. A(C  29,C  30,Cl 35)          119.52  0.000301   -0.03    119.49   
   109. A(C  29,C  30,C  31)          121.31 -0.000582    0.06    121.37   
   110. A(C  31,C  30,Cl 35)          119.17  0.000281   -0.03    119.14   
   111. A(C  32,C  31,H  34)          119.46  0.000266   -0.08    119.38   
   112. A(C  30,C  31,H  34)          121.59 -0.000173   -0.01    121.58   
   113. A(C  30,C  31,C  32)          118.94 -0.000092    0.10    119.04   
   114. A(C  31,C  32,O  33)          119.31 -0.001737   -0.04    119.27   
   115. A(C  27,C  32,O  33)          120.13 -0.000639    0.42    120.55   
   116. A(C  27,C  32,C  31)          120.50  0.002377   -0.36    120.14   
   117. A(C  23,O  33,C  32)          115.44  0.002621    0.08    115.52   
   118. D(H  22,C   1,O   0,C  23)     11.02 -0.000385    0.61     11.63   
   119. D(C  10,C   1,O   0,C  23)    130.24  0.001356    0.26    130.50   
   120. D(O   2,C   1,O   0,C  23)   -109.90 -0.001239    0.92   -108.98   
   121. D(C   3,O   2,C   1,H  22)     67.47 -0.000220   -0.40     67.08   
   122. D(C   3,O   2,C   1,C  10)    -55.93 -0.001477    0.08    -55.85   
   123. D(C   3,O   2,C   1,O   0)   -172.28 -0.000628   -0.37   -172.66   
   124. D(C  16,C   3,O   2,C   1)    -79.15 -0.003663    2.71    -76.44   
   125. D(H  21,C   3,O   2,C   1)    166.76 -0.001379    2.05    168.81   
   126. D(C   4,C   3,O   2,C   1)     51.50  0.000000    1.52     53.02   
   127. D(C   7,C   4,C   3,C  16)     79.56  0.001452   -2.38     77.18   
   128. D(C   7,C   4,C   3,O   2)    -49.97  0.001065   -1.75    -51.72   
   129. D(O   5,C   4,C   3,H  21)     72.73 -0.000249   -1.41     71.32   
   130. D(O   5,C   4,C   3,C  16)    -44.25  0.000562   -1.95    -46.20   
   131. D(C   7,C   4,C   3,H  21)   -163.46  0.000641   -1.84   -165.29   
   132. D(O   5,C   4,C   3,O   2)   -173.78  0.000176   -1.32   -175.10   
   133. D(H   6,O   5,C   4,H  15)    -69.91 -0.000269   -0.39    -70.30   
   134. D(H   6,O   5,C   4,C   7)     48.60 -0.000390   -0.23     48.37   
   135. D(H   6,O   5,C   4,C   3)    172.93  0.001511   -1.04    171.89   
   136. D(C  10,C   7,C   4,H  15)    -63.80  0.000717    0.05    -63.75   
   137. D(C  10,C   7,C   4,O   5)    175.77 -0.000240    0.11    175.88   
   138. D(C  10,C   7,C   4,C   3)     53.72  0.000528    0.30     54.02   
   139. D(O   8,C   7,C   4,H  15)     56.97  0.000111    0.32     57.29   
   140. D(O   8,C   7,C   4,O   5)    -63.46 -0.000847    0.38    -63.08   
   141. D(O   8,C   7,C   4,C   3)    174.49 -0.000078    0.57    175.06   
   142. D(H   9,O   8,C   7,H  14)     67.71  0.000048    1.20     68.91   
   143. D(H   9,O   8,C   7,C  10)    -53.84 -0.001007    1.72    -52.11   
   144. D(H   9,O   8,C   7,C   4)   -173.05 -0.000982    1.45   -171.60   
   145. D(O  11,C  10,C   1,O   0)    -67.88 -0.000797   -0.28    -68.16   
   146. D(C   7,C  10,C   1,H  22)    -67.47 -0.000258   -0.58    -68.05   
   147. D(C   7,C  10,C   1,O   2)     56.72  0.000758   -1.07     55.65   
   148. D(C   7,C  10,C   1,O   0)    173.08 -0.000410   -0.55    172.53   
   149. D(O  11,C  10,C   7,O   8)     65.57  0.000736    0.14     65.71   
   150. D(O  11,C  10,C   7,C   4)   -176.71 -0.000940    0.76   -175.95   
   151. D(C   1,C  10,C   7,H  14)     64.19 -0.000548    0.85     65.04   
   152. D(C   1,C  10,C   7,O   8)   -173.48  0.000720    0.29   -173.19   
   153. D(C   1,C  10,C   7,C   4)    -55.76 -0.000956    0.91    -54.85   
   154. D(O  11,C  10,C   1,H  22)     51.57 -0.000646   -0.31     51.27   
   155. D(O  11,C  10,C   7,H  14)    -56.76 -0.000532    0.70    -56.06   
   156. D(O  11,C  10,C   1,O   2)    175.76  0.000370   -0.79    174.97   
   157. D(H  12,O  11,C  10,H  13)    -63.87  0.000218   -1.29    -65.15   
   158. D(H  12,O  11,C  10,C   7)    176.02  0.001618   -1.39    174.63   
   159. D(H  12,O  11,C  10,C   1)     56.13  0.000194   -1.57     54.56   
   160. D(H  19,C  16,C   3,H  21)     57.69  0.000091    0.36     58.06   
   161. D(H  19,C  16,C   3,C   4)    175.72  0.000583    0.75    176.46   
   162. D(H  19,C  16,C   3,O   2)    -55.80 -0.001033    0.34    -55.46   
   163. D(O  17,C  16,C   3,C   4)    -63.61  0.000539    0.83    -62.78   
   164. D(O  17,C  16,C   3,O   2)     64.87 -0.001077    0.43     65.30   
   165. D(O  17,C  16,C   3,H  21)    178.36  0.000048    0.45    178.82   
   166. D(H  18,O  17,C  16,H  20)     43.80  0.000513    0.04     43.83   
   167. D(H  18,O  17,C  16,H  19)    -77.51 -0.001127    0.43    -77.08   
   168. D(H  18,O  17,C  16,C   3)    163.34  0.000410    0.03    163.37   
   169. D(H  39,C  23,O   0,C   1)      0.20  0.001069   -0.67     -0.47   
   170. D(O  33,C  23,O   0,C   1)    120.15  0.000274   -0.69    119.46   
   171. D(C  24,C  23,O   0,C   1)   -118.80 -0.001189    0.10   -118.70   
   172. D(N  26,C  24,C  23,O  33)    -35.03  0.000012    0.75    -34.28   
   173. D(N  26,C  24,C  23,O   0)   -153.84  0.001187    0.17   -153.67   
   174. D(O  25,C  24,C  23,H  39)    -92.39  0.000414   -0.31    -92.70   
   175. D(O  25,C  24,C  23,O  33)    147.88  0.000150   -0.24    147.65   
   176. D(O  25,C  24,C  23,O   0)     29.08  0.001325   -0.82     28.26   
   177. D(H  38,N  26,C  24,O  25)      1.75  0.000214    0.46      2.21   
   178. D(H  38,N  26,C  24,C  23)   -175.28  0.000370   -0.55   -175.83   
   179. D(C  27,N  26,C  24,O  25)   -178.83  0.000181    1.45   -177.38   
   180. D(C  27,N  26,C  24,C  23)      4.14  0.000336    0.44      4.58   
   181. D(C  32,C  27,N  26,H  38)   -166.46  0.000243    0.35   -166.11   
   182. D(C  32,C  27,N  26,C  24)     14.13  0.000300   -0.67     13.46   
   183. D(C  28,C  27,N  26,H  38)     11.75  0.000059    0.12     11.86   
   184. D(C  28,C  27,N  26,C  24)   -167.66  0.000116   -0.90   -168.57   
   185. D(H  37,C  28,C  27,C  32)   -179.76  0.000100   -0.31   -180.07   
   186. D(H  37,C  28,C  27,N  26)      2.07  0.000278   -0.07      2.00   
   187. D(C  29,C  28,C  27,C  32)      0.99  0.000147   -0.27      0.72   
   188. D(C  29,C  28,C  27,N  26)   -177.18  0.000326   -0.03   -177.21   
   189. D(H  36,C  29,C  28,H  37)      0.35  0.000021    0.07      0.42   
   190. D(H  36,C  29,C  28,C  27)    179.59 -0.000029    0.03    179.62   
   191. D(C  30,C  29,C  28,H  37)   -179.65 -0.000154    0.48   -179.17   
   192. D(C  30,C  29,C  28,C  27)     -0.41 -0.000204    0.44      0.04   
   193. D(Cl 35,C  30,C  29,H  36)      0.01 -0.000023    0.11      0.12   
   194. D(Cl 35,C  30,C  29,C  28)   -179.99  0.000151   -0.29   -180.29   
   195. D(C  31,C  30,C  29,H  36)    179.66 -0.000068    0.15    179.81   
   196. D(C  31,C  30,C  29,C  28)     -0.34  0.000106   -0.26     -0.60   
   197. D(H  34,C  31,C  30,Cl 35)     -0.32  0.000121   -0.13     -0.44   
   198. D(H  34,C  31,C  30,C  29)   -179.97  0.000166   -0.16   -180.13   
   199. D(C  32,C  31,C  30,Cl 35)   -179.86  0.000011   -0.06   -179.92   
   200. D(C  32,C  31,C  30,C  29)      0.49  0.000056   -0.10      0.40   
   201. D(O  33,C  32,C  31,C  30)    177.32 -0.000104    0.59    177.91   
   202. D(C  27,C  32,C  31,H  34)   -179.45 -0.000205    0.34   -179.11   
   203. D(C  27,C  32,C  31,C  30)      0.10 -0.000099    0.27      0.38   
   204. D(O  33,C  32,C  27,C  28)   -178.03  0.000033   -0.40   -178.43   
   205. D(O  33,C  32,C  27,N  26)      0.22 -0.000102   -0.63     -0.41   
   206. D(C  31,C  32,C  27,C  28)     -0.84 -0.000002   -0.09     -0.93   
   207. D(O  33,C  32,C  31,H  34)     -2.23 -0.000210    0.65     -1.58   
   208. D(C  31,C  32,C  27,N  26)    177.42 -0.000137   -0.33    177.09   
   209. D(C  23,O  33,C  32,C  31)    149.56 -0.001705    1.89    151.45   
   210. D(C  23,O  33,C  32,C  27)    -33.21 -0.001624    2.18    -31.03   
   211. D(C  32,O  33,C  23,H  39)    -69.53  0.001277   -2.05    -71.58   
   212. D(C  32,O  33,C  23,C  24)     49.49  0.002239   -2.28     47.21   
   213. D(C  32,O  33,C  23,O   0)    168.77  0.002521   -2.07    166.70   
    ----------------------------------------------------------------------------

Geometry step timings:
Preparation and reading OPT file:      0.000 s ( 0.075 %)
Internal coordinates            :      0.000 s ( 0.060 %)
B/P matrices and projection     :      0.006 s ( 5.777 %)
Hessian update/contruction      :      0.054 s (52.767 %)
Making the step                 :      0.005 s ( 5.060 %)
Converting the step to Cartesian:      0.000 s ( 0.441 %)
Storing new data                :      0.023 s (22.340 %)
Checking convergence            :      0.000 s ( 0.045 %)
Final printing                  :      0.014 s (13.435 %)
Total time                      :      0.102 s

Time for energy+gradient        :      0.387 s
Time for complete geometry iter :      0.573 s

         *************************************************************
         *                GEOMETRY OPTIMIZATION CYCLE   2            *
         *************************************************************
---------------------------------
CARTESIAN COORDINATES (ANGSTROEM)
---------------------------------
  O    -0.602456    0.582245   -0.757496
  C    -1.754538    0.031993   -0.167676
  O    -1.997443   -1.191860   -0.812103
  C    -3.214294   -1.840859   -0.477735
  C    -4.416243   -0.898398   -0.658651
  O    -5.576942   -1.553353   -0.208048
  H    -6.283549   -0.895080   -0.213835
  C    -4.206814    0.427782    0.067402
  O    -5.304394    1.258637   -0.253476
  H    -5.106381    2.136314    0.094166
  C    -2.887236    1.042193   -0.384251
  O    -2.670422    2.211946    0.363374
  H    -1.791970    2.573674    0.150543
  H    -2.934160    1.263674   -1.461939
  H    -4.166037    0.256886    1.151924
  H    -4.505302   -0.669754   -1.733266
  C    -3.165170   -2.528372    0.888927
  O    -3.021524   -1.585739    1.937069
  H    -3.253770   -2.008086    2.770401
  H    -2.312388   -3.220289    0.887936
  H    -4.092831   -3.097363    1.003591
  H    -3.303851   -2.642318   -1.220285
  H    -1.597218   -0.117678    0.912582
  C     0.566562    0.623070   -0.038228
  C     0.985556    2.101078    0.126609
  O     0.173501    2.998584    0.140711
  N     2.312808    2.292887    0.292104
  C     3.246624    1.256102    0.220966
  C     4.564457    1.420245    0.617648
  C     5.469860    0.382931    0.476150
  C     5.044764   -0.819541   -0.066454
  C     3.728361   -1.008989   -0.459071
  C     2.826020    0.031731   -0.310819
  O     1.541934   -0.134553   -0.734401
  H     3.394709   -1.941375   -0.883083
  Cl    6.172000   -2.113950   -0.251944
  H     6.497144    0.506504    0.777126
  H     4.885188    2.366663    1.026323
  H     2.625717    3.239505    0.468716
  H     0.439630    0.197915    0.978794

----------------------------
CARTESIAN COORDINATES (A.U.)
----------------------------
  NO LB    ZA    FRAG    MASS        X           Y           Z
   0 O   8.0000    0    15.999   -1.138477    1.100284   -1.431460
   1 C   6.0000    0    12.011   -3.315597    0.060458   -0.316862
   2 O   8.0000    0    15.999   -3.774620   -2.252289   -1.534653
   3 C   6.0000    0    12.011   -6.074135   -3.478719   -0.902788
   4 C   6.0000    0    12.011   -8.345490   -1.697726   -1.244670
   5 O   8.0000    0    15.999  -10.538893   -2.935412   -0.393154
   6 H   1.0000    0     1.008  -11.874188   -1.691457   -0.404090
   7 C   6.0000    0    12.011   -7.949727    0.808391    0.127371
   8 O   8.0000    0    15.999  -10.023851    2.378478   -0.479001
   9 H   1.0000    0     1.008   -9.649663    4.037048    0.177949
  10 C   6.0000    0    12.011   -5.456086    1.969459   -0.726129
  11 O   8.0000    0    15.999   -5.046366    4.179973    0.686678
  12 H   1.0000    0     1.008   -3.386332    4.863540    0.284485
  13 H   1.0000    0     1.008   -5.544759    2.387997   -2.762665
  14 H   1.0000    0     1.008   -7.872668    0.485445    2.176821
  15 H   1.0000    0     1.008   -8.513787   -1.265652   -3.275397
  16 C   6.0000    0    12.011   -5.981305   -4.777931    1.679828
  17 O   8.0000    0    15.999   -5.709852   -2.996612    3.660529
  18 H   1.0000    0     1.008   -6.148735   -3.794733    5.235300
  19 H   1.0000    0     1.008   -4.369779   -6.085465    1.677955
  20 H   1.0000    0     1.008   -7.734330   -5.853167    1.896512
  21 H   1.0000    0     1.008   -6.243374   -4.993256   -2.306004
  22 H   1.0000    0     1.008   -3.018305   -0.222380    1.724530
  23 C   6.0000    0    12.011    1.070647    1.177433   -0.072241
  24 C   6.0000    0    12.011    1.862430    3.970463    0.239256
  25 O   8.0000    0    15.999    0.327868    5.666502    0.265906
  26 N   7.0000    0    14.007    4.370574    4.332928    0.551997
  27 C   6.0000    0    12.011    6.135229    2.373688    0.417566
  28 C   6.0000    0    12.011    8.625574    2.683874    1.167185
  29 C   6.0000    0    12.011   10.336538    0.723634    0.899793
  30 C   6.0000    0    12.011    9.533223   -1.548708   -0.125580
  31 C   6.0000    0    12.011    7.045581   -1.906713   -0.867519
  32 C   6.0000    0    12.011    5.340403    0.059962   -0.587364
  33 O   8.0000    0    15.999    2.913834   -0.254269   -1.387816
  34 H   1.0000    0     1.008    6.415071   -3.668668   -1.668785
  35 Cl 17.0000    0    35.453   11.663390   -3.994787   -0.476106
  36 H   1.0000    0     1.008   12.277822    0.957154    1.468555
  37 H   1.0000    0     1.008    9.231668    4.472345    1.939470
  38 H   1.0000    0     1.008    4.961886    6.121776    0.885746
  39 H   1.0000    0     1.008    0.830781    0.374006    1.849652

      -----------------------------------------------------------      
     |                   =====================                   |     
     |                           x T B                           |     
     |                   =====================                   |     
     |                         S. Grimme                         |     
     |          Mulliken Center for Theoretical Chemistry        |     
     |                    University of Bonn                     |     
      -----------------------------------------------------------      

   * xtb version 6.7.1 (edcfbbe) compiled by 'albert@albert-system' on 2024-07-22

   xtb is free software: you can redistribute it and/or modify it under
   the terms of the GNU Lesser General Public License as published by
   the Free Software Foundation, either version 3 of the License, or
   (at your option) any later version.
   
   xtb is distributed in the hope that it will be useful,
   but WITHOUT ANY WARRANTY; without even the implied warranty of
   MERCHANTABILITY or FITNESS FOR A PARTICULAR PURPOSE.  See the
   GNU Lesser General Public License for more details.
   
   Cite this work as:
   * C. Bannwarth, E. Caldeweyher, S. Ehlert, A. Hansen, P. Pracht,
     J. Seibert, S. Spicher, S. Grimme, WIREs Comput. Mol. Sci., 2020, 11,
     e01493. DOI: 10.1002/wcms.1493
   
   for GFN2-xTB:
   * C. Bannwarth, S. Ehlert and S. Grimme., J. Chem. Theory Comput., 2019,
     15, 1652-1671. DOI: 10.1021/acs.jctc.8b01176
   for GFN1-xTB:
   * S. Grimme, C. Bannwarth, P. Shushkov, J. Chem. Theory Comput., 2017,
     13, 1989-2009. DOI: 10.1021/acs.jctc.7b00118
   for GFN0-xTB:
   * P. Pracht, E. Caldeweyher, S. Ehlert, S. Grimme, ChemRxiv, 2019, preprint.
     DOI: 10.26434/chemrxiv.8326202.v1
   for GFN-FF:
   * S. Spicher and S. Grimme, Angew. Chem. Int. Ed., 2020, 59, 15665-15673.
     DOI: 10.1002/anie.202004239
   
   for ALPB and GBSA implicit solvation:
   * S. Ehlert, M. Stahn, S. Spicher, S. Grimme, J. Chem. Theory Comput.,
     2021, 17, 4250-4261. DOI: 10.1021/acs.jctc.1c00471
   
   for ddCOSMO and CPCM-X implicit solvation:
   * M. Stahn, S. Ehlert, S. Grimme, J. Phys. Chem. A,
     2023, XX, XXXX-XXXX. DOI: 10.1021/acs.jpca.3c04382
   
   for DFT-D4:
   * E. Caldeweyher, C. Bannwarth and S. Grimme, J. Chem. Phys., 2017,
     147, 034112. DOI: 10.1063/1.4993215
[...]
 55:    887.57   0.004658   23.54  0.001638  ( 0.024318 -0.018945 -0.026221)
 56:    896.16   0.000735    3.71  0.000256  (-0.005624 -0.008581 -0.012273)
 57:    922.58   0.010245   51.77  0.003465  ( 0.019940 -0.053113 -0.015708)
 58:    950.04   0.003006   15.19  0.000987  (-0.026264  0.001378  0.017196)
 59:    979.74   0.005703   28.82  0.001816  (-0.037748  0.018679 -0.006522)
 60:   1000.13   0.014530   73.43  0.004534  ( 0.051342 -0.012329  0.041783)
 61:   1016.40   0.028641  144.74  0.008794  (-0.091150  0.020125 -0.008968)
 62:   1030.72   0.022821  115.33  0.006909  ( 0.071228  0.016292  0.039631)
 63:   1045.67   0.012105   61.17  0.003613  ( 0.025801 -0.017167 -0.051499)
 64:   1067.40   0.016596   83.87  0.004852  (-0.027732  0.063854  0.002341)
 65:   1072.94   0.017515   88.52  0.005094  (-0.063275 -0.033017 -0.000724)
 66:   1085.26   0.016145   81.59  0.004643  ( 0.025497 -0.058177 -0.024656)
 67:   1097.00   0.011270   56.96  0.003206  (-0.051773  0.013087 -0.018825)
 68:   1106.42   0.013886   70.17  0.003917  (-0.042167 -0.045367 -0.008959)
 69:   1119.26   0.017329   87.57  0.004832  (-0.026207 -0.025219 -0.059235)
 70:   1121.47   0.026931  136.10  0.007494  (-0.020419  0.079097  0.028645)
 71:   1135.21   0.028590  144.48  0.007859  (-0.004792  0.088444 -0.003742)
 72:   1137.31   0.000599    3.03  0.000164  (-0.006079  0.003983  0.010567)
 73:   1150.12   0.009712   49.08  0.002635  (-0.049910  0.000016  0.012001)
 74:   1170.77   0.014378   72.66  0.003832  (-0.059638  0.011516  0.011958)
 75:   1174.56   0.001549    7.83  0.000412  ( 0.016900 -0.002934  0.010835)
 76:   1202.67   0.008705   43.99  0.002259  ( 0.001814 -0.030231 -0.036628)
 77:   1211.46   0.004840   24.46  0.001247  (-0.032147 -0.010734 -0.009909)
 78:   1215.68   0.002769   13.99  0.000711  ( 0.014816 -0.018692 -0.011914)
 79:   1225.80   0.015683   79.26  0.003993  ( 0.045361  0.040233 -0.017786)
 80:   1230.51   0.003043   15.38  0.000772  (-0.015585 -0.022855 -0.002549)
 81:   1233.31   0.001560    7.88  0.000395  ( 0.017749 -0.007162 -0.005336)
 82:   1245.49   0.003463   17.50  0.000868  ( 0.012285  0.026046  0.006181)
 83:   1249.24   0.025337  128.04  0.006329  (-0.018780 -0.074068  0.022149)
 84:   1271.14   0.025033  126.51  0.006146  (-0.069960  0.025608  0.024401)
 85:   1277.95   0.004641   23.46  0.001133  ( 0.026977 -0.014888  0.013564)
 86:   1289.94   0.015530   78.48  0.003757  (-0.057230  0.017747 -0.012919)
 87:   1294.67   0.000968    4.89  0.000233  ( 0.011692  0.009816 -0.000547)
 88:   1302.38   0.011005   55.61  0.002637  ( 0.010687 -0.020511 -0.045847)
 89:   1310.89   0.005943   30.04  0.001415  (-0.009340 -0.028070 -0.023232)
 90:   1314.79   0.002929   14.80  0.000695  (-0.011162  0.015273  0.018366)
 91:   1327.01   0.014490   73.23  0.003407  ( 0.036984 -0.023800 -0.038383)
 92:   1336.31   0.006992   35.33  0.001633  (-0.016858 -0.034668  0.012114)
 93:   1338.40   0.000547    2.76  0.000127  (-0.010209  0.004552 -0.001571)
 94:   1348.66   0.001828    9.24  0.000423  (-0.005004  0.004788 -0.019367)
 95:   1360.19   0.003531   17.84  0.000810  (-0.002725 -0.026944 -0.008752)
 96:   1368.19   0.002314   11.69  0.000528  ( 0.018535 -0.009326  0.009857)
 97:   1374.00   0.016901   85.41  0.003839  ( 0.045370 -0.023306 -0.035170)
 98:   1424.45   0.003200   16.17  0.000701  ( 0.002389  0.025869  0.005104)
 99:   1450.54   0.001932    9.76  0.000416  (-0.009737 -0.005242 -0.017128)
100:   1479.19   0.058347  294.86  0.012309  ( 0.060314 -0.053544 -0.076189)
101:   1574.32   0.001660    8.39  0.000329  (-0.002519 -0.016672  0.006690)
102:   1584.86   0.004959   25.06  0.000977  ( 0.026370  0.002120 -0.016632)
103:   1777.25   0.201153  1016.55  0.035320  (-0.051303  0.136834  0.118173)
104:   2840.24   0.005125   25.90  0.000563  ( 0.001809  0.000362 -0.023658)
105:   2857.52   0.000226    1.14  0.000025  ( 0.004858  0.000593 -0.000840)
106:   2870.47   0.008594   43.43  0.000934  (-0.003010 -0.000730  0.030409)
107:   2887.80   0.016345   82.60  0.001766  (-0.040823  0.001256 -0.009910)
108:   2895.59   0.040112  202.71  0.004323  ( 0.064128 -0.012324 -0.007661)
109:   2914.07   0.006951   35.13  0.000744  (-0.003371 -0.001091  0.027053)
110:   2935.59   0.000110    0.56  0.000012  ( 0.001199  0.000160  0.003196)
111:   2941.47   0.002685   13.57  0.000285  ( 0.007161 -0.004202 -0.014695)
112:   3091.42   0.004662   23.56  0.000471  (-0.000590 -0.021675  0.000638)
113:   3115.43   0.000995    5.03  0.000100  ( 0.000258 -0.004594  0.008860)
114:   3132.58   0.001775    8.97  0.000177  (-0.012705 -0.000822  0.003834)
115:   3394.95   0.006479   32.74  0.000596  (-0.014498 -0.019553 -0.001731)
116:   3513.47   0.012726   64.31  0.001130  (-0.023990  0.023551  0.000362)
117:   3525.94   0.002219   11.21  0.000196  (-0.013915 -0.000482  0.001587)
118:   3536.49   0.010707   54.11  0.000945  (-0.017270  0.025245  0.003041)
119:   3547.39   0.006296   31.82  0.000554  (-0.014494 -0.017744  0.005380)

* The epsilon (eps) is given for a Dirac delta lineshape.
** The dipole moment derivative (T) already includes vibrational overlap.

The first frequency considered to be a vibration is 6
The total number of vibrations considered is 114


--------------------------
THERMOCHEMISTRY AT 298.15K
--------------------------

Temperature         ...   298.15 K
Pressure            ...     1.00 atm
Total Mass          ...   361.73 AMU
Quasi RRHO          ...     True
Cut-Off Frequency   ...     1.00 cm^-1

Throughout the following assumptions are being made:
  (1) The electronic state is orbitally nondegenerate
  (2) There are no thermally accessible electronically excited states
  (3) Hindered rotations indicated by low frequency modes are not
      treated as such but are treated as vibrations and this may
      cause some error
  (4) All equations used are the standard statistical mechanics
      equations for an ideal gas
  (5) All vibrations are strictly harmonic

freq.      13.12  E(vib)   ...       0.57 
freq.      21.11  E(vib)   ...       0.56 
freq.      39.11  E(vib)   ...       0.54 
freq.      56.91  E(vib)   ...       0.51 
freq.      69.05  E(vib)   ...       0.50 
freq.      89.75  E(vib)   ...       0.47 
freq.      99.72  E(vib)   ...       0.46 
freq.     115.05  E(vib)   ...       0.44 
freq.     131.55  E(vib)   ...       0.42 
freq.     156.56  E(vib)   ...       0.40 
freq.     163.18  E(vib)   ...       0.39 
freq.     196.50  E(vib)   ...       0.36 
freq.     199.07  E(vib)   ...       0.35 
freq.     219.06  E(vib)   ...       0.33 
freq.     236.02  E(vib)   ...       0.32 
freq.     238.35  E(vib)   ...       0.32 
freq.     242.38  E(vib)   ...       0.31 
freq.     275.69  E(vib)   ...       0.28 
freq.     285.89  E(vib)   ...       0.27 
freq.     302.33  E(vib)   ...       0.26 
freq.     334.98  E(vib)   ...       0.24 
freq.     347.62  E(vib)   ...       0.23 
freq.     363.16  E(vib)   ...       0.22 
freq.     370.40  E(vib)   ...       0.21 
freq.     383.29  E(vib)   ...       0.20 
freq.     395.03  E(vib)   ...       0.20 
freq.     408.50  E(vib)   ...       0.19 
freq.     420.42  E(vib)   ...       0.18 
freq.     425.34  E(vib)   ...       0.18 
freq.     436.90  E(vib)   ...       0.17 
freq.     446.02  E(vib)   ...       0.17 
freq.     478.71  E(vib)   ...       0.15 
freq.     506.17  E(vib)   ...       0.14 
freq.     515.23  E(vib)   ...       0.13 
freq.     532.44  E(vib)   ...       0.13 
freq.     555.89  E(vib)   ...       0.12 
freq.     562.22  E(vib)   ...       0.11 
freq.     572.99  E(vib)   ...       0.11 
freq.     590.95  E(vib)   ...       0.10 
freq.     617.44  E(vib)   ...       0.09 
freq.     653.99  E(vib)   ...       0.08 
freq.     673.18  E(vib)   ...       0.08 
freq.     698.62  E(vib)   ...       0.07 
freq.     747.81  E(vib)   ...       0.06 
freq.     784.44  E(vib)   ...       0.05 
freq.     817.50  E(vib)   ...       0.05 
freq.     826.57  E(vib)   ...       0.04 
freq.     828.13  E(vib)   ...       0.04 
freq.     860.67  E(vib)   ...       0.04 
freq.     887.57  E(vib)   ...       0.04 
freq.     896.16  E(vib)   ...       0.03 
freq.     922.58  E(vib)   ...       0.03 
freq.     950.04  E(vib)   ...       0.03 
freq.     979.74  E(vib)   ...       0.03 
freq.    1000.13  E(vib)   ...       0.02 
freq.    1016.40  E(vib)   ...       0.02 
freq.    1030.72  E(vib)   ...       0.02 
freq.    1045.67  E(vib)   ...       0.02 
freq.    1067.40  E(vib)   ...       0.02 
freq.    1072.94  E(vib)   ...       0.02 
freq.    1085.26  E(vib)   ...       0.02 
freq.    1097.00  E(vib)   ...       0.02 
freq.    1106.42  E(vib)   ...       0.02 
freq.    1119.26  E(vib)   ...       0.01 
freq.    1121.47  E(vib)   ...       0.01 
freq.    1135.21  E(vib)   ...       0.01 
freq.    1137.31  E(vib)   ...       0.01 
freq.    1150.12  E(vib)   ...       0.01 
freq.    1170.77  E(vib)   ...       0.01 
freq.    1174.56  E(vib)   ...       0.01 
freq.    1202.67  E(vib)   ...       0.01 
freq.    1211.46  E(vib)   ...       0.01 
freq.    1215.68  E(vib)   ...       0.01 
freq.    1225.80  E(vib)   ...       0.01 
freq.    1230.51  E(vib)   ...       0.01 
freq.    1233.31  E(vib)   ...       0.01 
freq.    1245.49  E(vib)   ...       0.01 
freq.    1249.24  E(vib)   ...       0.01 
freq.    1271.14  E(vib)   ...       0.01 
freq.    1277.95  E(vib)   ...       0.01 
freq.    1289.94  E(vib)   ...       0.01 
freq.    1294.67  E(vib)   ...       0.01 
freq.    1302.38  E(vib)   ...       0.01 
freq.    1310.89  E(vib)   ...       0.01 
freq.    1314.79  E(vib)   ...       0.01 
freq.    1327.01  E(vib)   ...       0.01 
freq.    1336.31  E(vib)   ...       0.01 
freq.    1338.40  E(vib)   ...       0.01 
freq.    1348.66  E(vib)   ...       0.01 
freq.    1360.19  E(vib)   ...       0.01 
freq.    1368.19  E(vib)   ...       0.01 
freq.    1374.00  E(vib)   ...       0.01 
freq.    1424.45  E(vib)   ...       0.00 
freq.    1450.54  E(vib)   ...       0.00 
freq.    1479.19  E(vib)   ...       0.00 
freq.    1574.32  E(vib)   ...       0.00 
freq.    1584.86  E(vib)   ...       0.00 
freq.    1777.25  E(vib)   ...       0.00 
freq.    2840.24  E(vib)   ...       0.00 
freq.    2857.52  E(vib)   ...       0.00 
freq.    2870.47  E(vib)   ...       0.00 
freq.    2887.80  E(vib)   ...       0.00 
freq.    2895.59  E(vib)   ...       0.00 
freq.    2914.07  E(vib)   ...       0.00 
freq.    2935.59  E(vib)   ...       0.00 
freq.    2941.47  E(vib)   ...       0.00 
freq.    3091.42  E(vib)   ...       0.00 
freq.    3115.43  E(vib)   ...       0.00 
freq.    3132.58  E(vib)   ...       0.00 
freq.    3394.95  E(vib)   ...       0.00 
freq.    3513.47  E(vib)   ...       0.00 
freq.    3525.94  E(vib)   ...       0.00 
freq.    3536.49  E(vib)   ...       0.00 
freq.    3547.39  E(vib)   ...       0.00 

------------
INNER ENERGY
------------

The inner energy is: U= E(el) + E(ZPE) + E(vib) + E(rot) + E(trans)
    E(el)   - is the total energy from the electronic structure calculation
              = E(kin-el) + E(nuc-el) + E(el-el) + E(nuc-nuc)
    E(ZPE)  - the the zero temperature vibrational energy from the frequency calculation
    E(vib)  - the the finite temperature correction to E(ZPE) due to population
              of excited vibrational states
    E(rot)  - is the rotational thermal energy
    E(trans)- is the translational thermal energy

Summary of contributions to the inner energy U:
Electronic energy                ...    -78.17908385 Eh
Zero point energy                ...      0.29409190 Eh     184.55 kcal/mol
Thermal vibrational correction   ...      0.01988173 Eh      12.48 kcal/mol
Thermal rotational correction    ...      0.00141627 Eh       0.89 kcal/mol
Thermal translational correction ...      0.00141627 Eh       0.89 kcal/mol
-----------------------------------------------------------------------
Total thermal energy                    -77.86227767 Eh


Summary of corrections to the electronic energy:
(perhaps to be used in another calculation)
Total thermal correction                  0.02271427 Eh      14.25 kcal/mol
Non-thermal (ZPE) correction              0.29409190 Eh     184.55 kcal/mol
-----------------------------------------------------------------------
Total correction                          0.31680618 Eh     198.80 kcal/mol


--------
ENTHALPY
--------

The enthalpy is H = U + kB*T
                kB is Boltzmann's constant
Total thermal energy              ...    -77.86227767 Eh 
Thermal Enthalpy correction       ...      0.00094421 Eh       0.59 kcal/mol
-----------------------------------------------------------------------
Total Enthalpy                    ...    -77.86133346 Eh


WARNING (ORCA/SYM): The number of Z matrix atoms does not agree with
the number of centers in the basis set. The point group will therefore
be determined without considering basis set information.


Note: Only C1 symmetry has been detected, increase convergence thresholds 
      if your molecule has a higher symmetry. Symmetry factor of 1.0 is   
      used for the rotational entropy correction. 
 

Note: Rotational entropy computed according to Herzberg 
Infrared and Raman Spectra, Chapter V,1, Van Nostrand Reinhold, 1945 
Point Group:  C1, Symmetry Number:   1  
Rotational constants in cm-1:     0.009660     0.005495     0.004072 

Vibrational entropy computed according to the QRRHO of S. Grimme
Chem.Eur.J. 2012 18 9955 using a reference frequency of 100.0 cm-1


-------
ENTROPY
-------

The entropy contributions are T*S = T*(S(el)+S(vib)+S(rot)+S(trans))
     S(el)   - electronic entropy
     S(vib)  - vibrational entropy
     S(rot)  - rotational entropy
     S(trans)- translational entropy
The entropies will be listed as multiplied by the temperature to get
units of energy

Electronic entropy                ...      0.00000000 Eh      0.00 kcal/mol
Vibrational entropy               ...      0.03521430 Eh     22.10 kcal/mol
Rotational entropy                ...      0.01675605 Eh     10.51 kcal/mol
Translational entropy             ...      0.02069220 Eh     12.98 kcal/mol
-----------------------------------------------------------------------
Final entropy term                ...      0.07266255 Eh     45.60 kcal/mol

In case the symmetry of your molecule has not been determined correctly
or in case you have a reason to use a different symmetry number we print 
out the resulting rotational entropy values for sn=1,12:

 non-linear molecules -----------------------------------
|  sn= 1 | S(rot)=       0.01675605 Eh     10.51 kcal/mol|
|  sn= 2 | S(rot)=       0.01610159 Eh     10.10 kcal/mol|
|  sn= 3 | S(rot)=       0.01571876 Eh      9.86 kcal/mol|
|  sn= 4 | S(rot)=       0.01544714 Eh      9.69 kcal/mol|
|  sn= 5 | S(rot)=       0.01523645 Eh      9.56 kcal/mol|
|  sn= 6 | S(rot)=       0.01506430 Eh      9.45 kcal/mol|
|  sn= 7 | S(rot)=       0.01491876 Eh      9.36 kcal/mol|
|  sn= 8 | S(rot)=       0.01479268 Eh      9.28 kcal/mol|
|  sn= 9 | S(rot)=       0.01468147 Eh      9.21 kcal/mol|
|  sn=10 | S(rot)=       0.01458199 Eh      9.15 kcal/mol|
|  sn=11 | S(rot)=       0.01449200 Eh      9.09 kcal/mol|
|  sn=12 | S(rot)=       0.01440985 Eh      9.04 kcal/mol|
 linear molecules ---------------------------------------
|  Dinfh | S(rot)=       0.01052218 Eh      6.60 kcal/mol|
|  Cinfv | S(rot)=       0.01117664 Eh      7.01 kcal/mol|
 --------------------------------------------------------


-------------------
GIBBS FREE ENERGY
-------------------

The Gibbs free energy is G = H - T*S

Total enthalpy                    ...    -77.86133346 Eh 
Total entropy correction          ...     -0.07266255 Eh    -45.60 kcal/mol
-----------------------------------------------------------------------
Final Gibbs free energy         ...    -77.93399601 Eh

For completeness - the Gibbs free energy minus the electronic energy
G-E(el)                           ...      0.24508784 Eh    153.79 kcal/mol



--------------------------------
SUGGESTED CITATIONS FOR THIS RUN
--------------------------------

Below you find a list of papers that are relevant to this ORCA run
We neither can nor want to force you to cite these papers, but we appreciate if you do
You receive ORCA, which is the product of decades of hard work by many enthusiastic individuals, for free
The only thing we kindly ask in return is that you cite our papers,
We deeply appreciate it, if you show your appreciation for ORCA by not just citing the generic ORCA reference.

Please note that relegating all ORCA citations to the supporting information does *not* help us.
SI sections are not indexed - citations you put there will not count into any citation statistics
But we need these citations in order to attract the funding resources that allow us to do what we are doing

Therefore, if you are a happy ORCA user, please consider citing a few of the papers listed below in the main body of your paper

In addition to the list printed below, the program has created the file xtb_test2.bibtex that contains the list in bibtex format
You can import this file easily into all common literature databanks and citation aid programs


List of essential papers. We consider these as the minimum necessary citations

  1. Bannwarth, C.; Ehlert, S.; Grimme, S.
     GFN2-xTB—An Accurate and Broadly Parametrized Self-Consistent Tight-Binding Quantum Chemical Method with Multipole Electrostatics and Density-Dependent Dispersion Contributions
     J. Chem. Theory Comput. 2019 15(3), 1652-1671
     doi.org/10.1021/acs.jctc.8b01176
  2. Neese, F.
     Software update: the ORCA program system, version 6.0
     WIRES Comput. Molec. Sci. 2025 15(1), e70019
     doi.org/10.1002/wcms.7019

List of papers to cite with high priority. The work reported in these papers was absolutely
necessary for this run to complete.
Our perspective: the developers of density functionals and basis sets usually get cited in chemistry papers
Good! But without the algorithms to do something with them, the functionals or basis sets would not do anything.
Hence, in our opinion, the algorithm design and method developments papers are equally worthy of getting cited

  1. Bannwarth, C.; Caldeweyher, E.; Ehlert, S.; Hansen, A.; Pracht, P.; Seibert, J.; Spicher, S.; Grimme, S.
     Extended tight-binding quantum chemistry methods
     WIRES Comput. Molec. Sci. 2020 11(2), e1493
     doi.org/10.1002/wcms.1493

List of suggested additional citations. These are papers that are important in the 'surrounding' of 
of this run, or papers that preceded the highly important papers. If you like your results we are grateful for a citation.

  1. Neese, F.
     The ORCA program system
     WIRES Comput. Molec. Sci. 2012 2(1), 73-78
     doi.org/10.1002/wcms.81
  2. Neese, F.
     Software update: the ORCA program system, version 4.0
     WIRES Comput. Molec. Sci. 2018 8(1), 1-6
     doi.org/10.1002/wcms.1327
  3. Neese, F.; Wennmohs, F.; Becker, U.; Riplinger, C.
     The ORCA quantum chemistry program package
     J. Chem. Phys. 2020 152(22), 224108
     doi.org/10.1063/5.0004608
  4. Neese, F.
     Software update: The ORCA program system—Version 5.0
     WIRES Comput. Molec. Sci. 2022 12(1), e1606
     doi.org/10.1002/wcms.1606

List of optional additional citations

  1. Neese, F.
     Approximate second-order SCF convergence for spin unrestricted wavefunctions
     Chem. Phys. Lett. 2000 325(1-3), 93-98
     doi.org/10.1016/s0009-2614(00)00662-x

Timings for individual modules:

Sum of individual times          ...      157.822 sec (=   2.630 min)
Geometry relaxation              ...        2.478 sec (=   0.041 min)   1.6 %
Numerical frequency calculation  ...      121.838 sec (=   2.031 min)  77.2 %
XTB module                       ...       33.506 sec (=   0.558 min)  21.2 %
                             ****ORCA TERMINATED NORMALLY****
TOTAL RUN TIME: 0 days 0 hours 2 minutes 44 seconds 975 msec
