
                                 *****************
                                 * O   R   C   A *
                                 *****************

                                            #,                                       
                                            ###                                      
                                            ####                                     
                                            #####                                    
                                            ######                                   
                                           ########,                                 
                                     ,,################,,,,,                         
                               ,,#################################,,                 
                          ,,##########################################,,             
                       ,#########################################, ''#####,          
                    ,#############################################,,   '####,        
                  ,##################################################,,,,####,       
                ,###########''''           ''''###############################       
              ,#####''   ,,,,##########,,,,          '''####'''          '####       
            ,##' ,,,,###########################,,,                        '##       
           ' ,,###''''                  '''############,,,                           
         ,,##''                                '''############,,,,        ,,,,,,###''
      ,#''                                            '''#######################'''  
     '                                                          ''''####''''         
             ,#######,   #######,   ,#######,      ##                                
            ,#'     '#,  ##    ##  ,#'     '#,    #''#        ######   ,####,        
            ##       ##  ##   ,#'  ##            #'  '#       #        #'  '#        
            ##       ##  #######   ##           ,######,      #####,   #    #        
            '#,     ,#'  ##    ##  '#,     ,#' ,#      #,         ##   #,  ,#        
             '#######'   ##     ##  '#######'  #'      '#     #####' # '####'        



                  #######################################################
                  #                        -***-                        #
                  #          Department of theory and spectroscopy      #
                  #    Directorship and core code : Frank Neese         #
                  #        Max Planck Institute fuer Kohlenforschung    #
                  #                Kaiser Wilhelm Platz 1               #
                  #                 D-45470 Muelheim/Ruhr               #
                  #                      Germany                        #
                  #                                                     #
                  #                  All rights reserved                #
                  #                        -***-                        #
                  #######################################################


                         Program Version 5.0.1 -  RELEASE  -


 With contributions from (in alphabetic order):
   Daniel Aravena         : Magnetic Suceptibility
   Michael Atanasov       : Ab Initio Ligand Field Theory (pilot matlab implementation)
   Alexander A. Auer      : GIAO ZORA, VPT2 properties, NMR spectrum
   Ute Becker             : Parallelization
   Giovanni Bistoni       : ED, misc. LED, open-shell LED, HFLD
   Martin Brehm           : Molecular dynamics
   Dmytro Bykov           : SCF Hessian
   Vijay G. Chilkuri      : MRCI spin determinant printing, contributions to CSF-ICE
   Dipayan Datta          : RHF DLPNO-CCSD density
   Achintya Kumar Dutta   : EOM-CC, STEOM-CC
   Dmitry Ganyushin       : Spin-Orbit,Spin-Spin,Magnetic field MRCI
   Miquel Garcia          : C-PCM and meta-GGA Hessian, CC/C-PCM, Gaussian charge scheme
   Yang Guo               : DLPNO-NEVPT2, F12-NEVPT2, CIM, IAO-localization
   Andreas Hansen         : Spin unrestricted coupled pair/coupled cluster methods
   Benjamin Helmich-Paris : MC-RPA, TRAH-SCF, COSX integrals
   Lee Huntington         : MR-EOM, pCC
   Robert Izsak           : Overlap fitted RIJCOSX, COSX-SCS-MP3, EOM
   Marcus Kettner         : VPT2
   Christian Kollmar      : KDIIS, OOCD, Brueckner-CCSD(T), CCSD density, CASPT2, CASPT2-K
   Simone Kossmann        : Meta GGA functionals, TD-DFT gradient, OOMP2, MP2 Hessian
   Martin Krupicka        : Initial AUTO-CI
   Lucas Lang             : DCDCAS
   Marvin Lechner         : AUTO-CI (C++ implementation), FIC-MRCC
   Dagmar Lenk            : GEPOL surface, SMD
   Dimitrios Liakos       : Extrapolation schemes; Compound Job, initial MDCI parallelization
   Dimitrios Manganas     : Further ROCIS development; embedding schemes
   Dimitrios Pantazis     : SARC Basis sets
   Anastasios Papadopoulos: AUTO-CI, single reference methods and gradients
   Taras Petrenko         : DFT Hessian,TD-DFT gradient, ASA, ECA, R-Raman, ABS, FL, XAS/XES, NRVS
   Peter Pinski           : DLPNO-MP2, DLPNO-MP2 Gradient
   Christoph Reimann      : Effective Core Potentials
   Marius Retegan         : Local ZFS, SOC
   Christoph Riplinger    : Optimizer, TS searches, QM/MM, DLPNO-CCSD(T), (RO)-DLPNO pert. Triples
   Tobias Risthaus        : Range-separated hybrids, TD-DFT gradient, RPA, STAB
   Michael Roemelt        : Original ROCIS implementation
   Masaaki Saitow         : Open-shell DLPNO-CCSD energy and density
   Barbara Sandhoefer     : DKH picture change effects
   Avijit Sen             : IP-ROCIS
   Kantharuban Sivalingam : CASSCF convergence, NEVPT2, FIC-MRCI
   Bernardo de Souza      : ESD, SOC TD-DFT
   Georgi Stoychev        : AutoAux, RI-MP2 NMR, DLPNO-MP2 response
   Willem Van den Heuvel  : Paramagnetic NMR
   Boris Wezisla          : Elementary symmetry handling
   Frank Wennmohs         : Technical directorship


 We gratefully acknowledge several colleagues who have allowed us to
 interface, adapt or use parts of their codes:
   Stefan Grimme, W. Hujo, H. Kruse, P. Pracht,  : VdW corrections, initial TS optimization,
                  C. Bannwarth, S. Ehlert          DFT functionals, gCP, sTDA/sTD-DF
   Ed Valeev, F. Pavosevic, A. Kumar             : LibInt (2-el integral package), F12 methods
   Garnet Chan, S. Sharma, J. Yang, R. Olivares  : DMRG
   Ulf Ekstrom                                   : XCFun DFT Library
   Mihaly Kallay                                 : mrcc  (arbitrary order and MRCC methods)
   Jiri Pittner, Ondrej Demel                    : Mk-CCSD
   Frank Weinhold                                : gennbo (NPA and NBO analysis)
   Christopher J. Cramer and Donald G. Truhlar   : smd solvation model
   Lars Goerigk                                  : TD-DFT with DH, B97 family of functionals
   V. Asgeirsson, H. Jonsson                     : NEB implementation
   FAccTs GmbH                                   : IRC, NEB, NEB-TS, DLPNO-Multilevel, CI-OPT
                                                   MM, QMMM, 2- and 3-layer-ONIOM, Crystal-QMMM,
                                                   LR-CPCM, SF, NACMEs, symmetry and pop. for TD-DFT,
                                                   nearIR, NL-DFT gradient (VV10), updates on ESD,
                                                   ML-optimized integration grids
   S Lehtola, MJT Oliveira, MAL Marques          : LibXC Library
   Liviu Ungur et al                             : ANISO software


 Your calculation uses the libint2 library for the computation of 2-el integrals
 For citations please refer to: http://libint.valeyev.net

 Your ORCA version has been built with support for libXC version: 5.1.0
 For citations please refer to: https://tddft.org/programs/libxc/

 This ORCA versions uses:
   CBLAS   interface :  Fast vector & matrix operations
   LAPACKE interface :  Fast linear algebra routines
   SCALAPACK package :  Parallel linear algebra routines
   Shared memory     :  Shared parallel matrices
   BLAS/LAPACK       :  OpenBLAS 0.3.15  USE64BITINT DYNAMIC_ARCH NO_AFFINITY Zen SINGLE_THREADED
        Core in use  :  Zen
   Copyright (c) 2011-2014, The OpenBLAS Project


Your calculation utilizes the semiempirical GFN2-xTB method
Please cite in your paper:
C. Bannwarth, Ehlert S., S. Grimme,  J. Chem. Theory Comput., 15, (2019), 1652.
   

================================================================================

================================================================================
                                        WARNINGS
                       Please study these warnings very carefully!
================================================================================


WARNING: Geometry Optimization
  ===> : Switching off AutoStart
         For restart on a previous wavefunction, please use MOREAD

WARNING: Found dipole moment calculation with XTB calculation
  ===> : Switching off dipole moment calculation


WARNING: otool_xtb not available.
         Trying xtb instead   ... done.
  ===> : Now using xtb as program name.


WARNING: TRAH-SCF for XTB is not implemented!
  ===> : Turning TRAH off!

================================================================================
                                       INPUT FILE
================================================================================
NAME = xtb_test2.inp
|  1> ! GFN2-XTB OPT NUMFREQ
|  2> 
|  3> %maxcore 2000
|  4> 
|  5> * xyz 0 1
|  6> O   -0.6052   0.5922   -0.7685
|  7> C   -1.7506   0.0461   -0.1664
|  8> O   -1.9967   -1.1790   -0.8061
|  9> C   -3.2141   -1.8356   -0.4735
| 10> C   -4.4050   -0.8816   -0.6227
| 11> O   -5.5604   -1.5339   -0.1464
| 12> H   -6.2695   -0.8802   -0.1450
| 13> C   -4.1799   0.4395   0.0845
| 14> O   -5.2839   1.2661   -0.2363
| 15> H   -5.0989   2.1440   0.1163
| 16> C   -2.8775   1.0416   -0.3900
| 17> O   -2.6576   2.2239   0.3354
| 18> H   -1.7941   2.5968   0.0924
| 19> H   -2.9389   1.2370   -1.4688
| 20> H   -4.1260   0.2761   1.1646
| 21> H   -4.5119   -0.6565   -1.6921
| 22> C   -3.1447   -2.5730   0.8504
| 23> O   -2.9643   -1.6622   1.9241
| 24> H   -3.1815   -2.1015   2.7496
| 25> H   -2.3028   -3.2712   0.7995
| 26> H   -4.0737   -3.1361   0.9644
| 27> H   -3.3224   -2.6121   -1.2341
| 28> H   -1.5842   -0.0926   0.9070
| 29> C   0.5561   0.6500   -0.0553
| 30> C   0.9750   2.1257   0.0869
| 31> O   0.1639   3.0227   0.1022
| 32> N   2.3067   2.3143   0.2535
| 33> C   3.2362   1.2668   0.2094
| 34> C   4.5500   1.4182   0.6223
| 35> C   5.4453   0.3665   0.5039
| 36> C   5.0086   -0.8382   -0.0236
| 37> C   3.6943   -1.0134   -0.4278
| 38> C   2.8106   0.0438   -0.3079
| 39> O   1.5334   -0.1022   -0.7528
| 40> H   3.3487   -1.9510   -0.8393
| 41> Cl  6.1203   -2.1560   -0.1745
| 42> H   6.4729   0.4785   0.8174
| 43> H   4.8777   2.3676   1.0274
| 44> H   2.6172   3.2601   0.4242
| 45> H   0.4368   0.2338   0.9560
| 46> *
| 47> 
| 48>                          ****END OF INPUT****
================================================================================

                       *****************************
                       * Geometry Optimization Run *
                       *****************************

Geometry optimization settings:
Update method            Update   .... BFGS
Choice of coordinates    CoordSys .... Z-matrix Internals
Initial Hessian          InHess   .... Almoef's Model

Convergence Tolerances:
Energy Change            TolE     ....  5.0000e-06 Eh
Max. Gradient            TolMAXG  ....  3.0000e-04 Eh/bohr
RMS Gradient             TolRMSG  ....  1.0000e-04 Eh/bohr
Max. Displacement        TolMAXD  ....  4.0000e-03 bohr
RMS Displacement         TolRMSD  ....  2.0000e-03 bohr
Strict Convergence                ....  False
------------------------------------------------------------------------------
                        ORCA OPTIMIZATION COORDINATE SETUP
------------------------------------------------------------------------------

The optimization will be done in new redundant internal coordinates
Making redundant internal coordinates   ...  (new redundants) done
Evaluating the initial hessian          ...  (Almloef) done
Evaluating the coordinates              ...  done
Calculating the B-matrix                .... done
Calculating the G-matrix                .... done
Diagonalizing the G-matrix              .... done
Small eigenvalue found = 3.348e-03
Small eigenvalue found = 6.669e-03
Small eigenvalue found = 1.017e-02
Small eigenvalue found = 2.500e-02
The first mode is                       ....  113
The number of degrees of freedom        ....  114

    -----------------------------------------------------------------
                    Redundant Internal Coordinates


    -----------------------------------------------------------------
         Definition                    Initial Value    Approx d2E/dq
    -----------------------------------------------------------------
      1. B(C   1,O   0)                  1.4045         0.530520   
      2. B(O   2,C   1)                  1.4038         0.531937   
      3. B(C   3,O   2)                  1.4226         0.496425   
      4. B(C   4,C   3)                  1.5332         0.369245   
      5. B(O   5,C   4)                  1.4097         0.520494   
      6. B(H   6,O   5)                  0.9644         0.511540   
      7. B(C   7,C   4)                  1.5153         0.394316   
      8. B(O   8,C   7)                  1.4160         0.508660   
      9. B(H   9,O   8)                  0.9640         0.512407   
     10. B(C  10,C   7)                  1.5113         0.400192   
     11. B(C  10,C   1)                  1.5202         0.387310   
     12. B(O  11,C  10)                  1.4044         0.530725   
     13. B(H  12,O  11)                  0.9715         0.498519   
     14. B(H  13,C  10)                  1.0981         0.349579   
     15. B(H  14,C   7)                  1.0937         0.355214   
     16. B(H  15,C   4)                  1.0981         0.349607   
     17. B(C  16,C   3)                  1.5170         0.391850   
     18. B(O  17,C  16)                  1.4195         0.502154   
     19. B(H  18,O  17)                  0.9600         0.519946   
     20. B(H  19,C  16)                  1.0949         0.353638   
     21. B(H  20,C  16)                  1.0923         0.357071   
     22. B(H  21,C   3)                  1.0923         0.357026   
     23. B(H  22,C   1)                  1.0950         0.353493   
     24. B(C  23,O   0)                  1.3640         0.615586   
     25. B(C  24,C  23)                  1.5406         0.359333   
     26. B(O  25,C  24)                  1.2094         1.086325   
     27. B(N  26,C  24)                  1.3553         0.635753   
     28. B(C  27,N  26)                  1.4011         0.537174   
     29. B(C  28,C  27)                  1.3855         0.635322   
     30. B(C  29,C  28)                  1.3862         0.633493   
     31. B(C  30,C  29)                  1.3857         0.634660   
     32. B(C  31,C  30)                  1.3862         0.633658   
     33. B(C  32,C  31)                  1.3831         0.640829   
     34. B(C  32,C  27)                  1.3944         0.614688   
     35. B(O  33,C  32)                  1.3603         0.624044   
     36. B(O  33,C  23)                  1.4168         0.507060   
     37. B(H  34,C  31)                  1.0807         0.372645   
     38. B(Cl 35,C  30)                  1.7307         0.401056   
     39. B(H  36,C  29)                  1.0802         0.373328   
     40. B(H  37,C  28)                  1.0830         0.369502   
     41. B(H  38,N  26)                  1.0100         0.432719   
     42. B(H  39,C  23)                  1.1001         0.347005   
     43. A(C   1,O   0,C  23)          119.1193         0.416116   
     44. A(O   2,C   1,H  22)          111.2715         0.340760   
     45. A(O   0,C   1,H  22)          110.2147         0.340608   
     46. A(O   0,C   1,O   2)          106.6747         0.405480   
     47. A(O   0,C   1,C  10)          106.6700         0.385992   
     48. A(O   2,C   1,C  10)          111.9943         0.386171   
     49. A(C  10,C   1,H  22)          109.8631         0.325257   
     50. A(C   1,O   2,C   3)          116.5051         0.400757   
     51. A(C   4,C   3,H  21)          107.3108         0.323244   
     52. A(O   2,C   3,C  16)          112.9073         0.382333   
     53. A(C   4,C   3,C  16)          115.0195         0.365603   
     54. A(O   2,C   3,H  21)          104.4862         0.337412   
     55. A(O   2,C   3,C   4)          110.7791         0.378415   
     56. A(C  16,C   3,H  21)          105.4659         0.326415   
     57. A(C   3,C   4,C   7)          112.4384         0.365996   
     58. A(C   7,C   4,H  15)          106.8739         0.325625   
     59. A(C   3,C   4,O   5)          108.4107         0.381533   
     60. A(O   5,C   4,H  15)          110.1280         0.338898   
     61. A(C   3,C   4,H  15)          107.3348         0.322133   
     62. A(O   5,C   4,C   7)          111.5605         0.385915   
     63. A(C   4,O   5,H   6)          106.8259         0.358206   
     64. A(O   8,C   7,C  10)          111.6051         0.385364   
     65. A(C   4,C   7,C  10)          109.1982         0.371088   
     66. A(C  10,C   7,H  14)          109.0939         0.327275   
     67. A(O   8,C   7,H  14)          110.4490         0.338497   
     68. A(C   4,C   7,H  14)          109.7530         0.326479   
     69. A(C   4,C   7,O   8)          106.7021         0.384373   
     70. A(C   7,O   8,H   9)          107.4059         0.356911   
     71. A(C   1,C  10,C   7)          109.3758         0.369945   
     72. A(O  11,C  10,H  13)          111.4937         0.339997   
     73. A(C   7,C  10,H  13)          109.3400         0.326415   
     74. A(C   1,C  10,H  13)          107.6072         0.324663   
     75. A(C   1,C  10,O  11)          111.0539         0.386018   
     76. A(C   7,C  10,O  11)          107.9485         0.388226   
     77. A(C  10,O  11,H  12)          109.4584         0.357822   
     78. A(H  19,C  16,H  20)          109.2736         0.289630   
     79. A(C   3,C  16,O  17)          110.7344         0.383096   
     80. A(C   3,C  16,H  19)          107.7323         0.325903   
     81. A(O  17,C  16,H  20)          111.0955         0.338065   
     82. A(C   3,C  16,H  20)          107.6236         0.326422   
     83. A(O  17,C  16,H  19)          110.2793         0.337521   
     84. A(C  16,O  17,H  18)          109.1507         0.357016   
     85. A(C  24,C  23,O  33)          111.4953         0.378021   
     86. A(O   0,C  23,O  33)          107.9000         0.412785   
     87. A(O   0,C  23,H  39)          111.8576         0.348133   
     88. A(O   0,C  23,C  24)          108.6839         0.390990   
     89. A(O  33,C  23,H  39)          109.0570         0.337004   
     90. A(C  24,C  23,H  39)          107.8807         0.320310   
     91. A(O  25,C  24,N  26)          123.6568         0.476543   
     92. A(C  23,C  24,N  26)          114.3198         0.393202   
     93. A(C  23,C  24,O  25)          121.9546         0.432419   
     94. A(C  24,N  26,C  27)          122.9529         0.419443   
     95. A(C  27,N  26,H  38)          120.0971         0.350058   
     96. A(C  24,N  26,H  38)          116.9475         0.360206   
     97. A(C  28,C  27,C  32)          119.7245         0.435303   
     98. A(N  26,C  27,C  32)          117.7034         0.419653   
     99. A(N  26,C  27,C  28)          122.5479         0.422133   
    100. A(C  27,C  28,C  29)          120.2707         0.437673   
    101. A(C  29,C  28,H  37)          120.1068         0.355750   
    102. A(C  27,C  28,H  37)          119.6183         0.355924   
    103. A(C  28,C  29,C  30)          119.2445         0.437591   
    104. A(C  30,C  29,H  36)          120.0278         0.356484   
    105. A(C  28,C  29,H  36)          120.7277         0.356372   
    106. A(C  29,C  30,Cl 35)          119.5196         0.421457   
    107. A(C  29,C  30,C  31)          121.3108         0.437611   
    108. A(C  31,C  30,Cl 35)          119.1687         0.421339   
    109. A(C  32,C  31,H  34)          119.4622         0.356959   
    110. A(C  30,C  31,H  34)          121.5949         0.356277   
    111. A(C  30,C  31,C  32)          118.9412         0.438375   
    112. A(C  31,C  32,O  33)          119.3072         0.434304   
    113. A(C  27,C  32,O  33)          120.1338         0.431064   
    114. A(C  27,C  32,C  31)          120.5004         0.435980   
    115. A(C  23,O  33,C  32)          115.4446         0.413786   
    116. D(H  22,C   1,O   0,C  23)     11.0210         0.022353   
    117. D(O   2,C   1,O   0,C  23)   -109.9006         0.022353   
    118. D(C  10,C   1,O   0,C  23)    130.2448         0.022353   
    119. D(C   3,O   2,C   1,H  22)     67.4724         0.022478   
    120. D(C   3,O   2,C   1,O   0)   -172.2832         0.022478   
    121. D(C   3,O   2,C   1,C  10)    -55.9276         0.022478   
    122. D(H  21,C   3,O   2,C   1)    166.7621         0.019474   
    123. D(C  16,C   3,O   2,C   1)    -79.1476         0.019474   
    124. D(C   4,C   3,O   2,C   1)     51.5012         0.019474   
    125. D(C   7,C   4,C   3,C  16)     79.5629         0.010902   
    126. D(O   5,C   4,C   3,C  16)    -44.2504         0.010902   
    127. D(O   5,C   4,C   3,H  21)     72.7313         0.010902   
    128. D(O   5,C   4,C   3,O   2)   -173.7839         0.010902   
    129. D(C   7,C   4,C   3,H  21)   -163.4554         0.010902   
    130. D(H  15,C   4,C   3,H  21)    -46.2049         0.010902   
    131. D(H  15,C   4,C   3,O   2)     67.2799         0.010902   
    132. D(C   7,C   4,C   3,O   2)    -49.9705         0.010902   
    133. D(H  15,C   4,C   3,C  16)   -163.1866         0.010902   
    134. D(H   6,O   5,C   4,C   3)    172.9328         0.021480   
    135. D(H   6,O   5,C   4,H  15)    -69.9090         0.021480   
    136. D(H   6,O   5,C   4,C   7)     48.5951         0.021480   
    137. D(H  14,C   7,C   4,H  15)    176.6576         0.012350   
    138. D(H  14,C   7,C   4,O   5)     56.2261         0.012350   
    139. D(H  14,C   7,C   4,C   3)    -65.8181         0.012350   
    140. D(C  10,C   7,C   4,O   5)    175.7689         0.012350   
    141. D(C  10,C   7,C   4,H  15)    -63.7995         0.012350   
    142. D(O   8,C   7,C   4,O   5)    -63.4644         0.012350   
    143. D(O   8,C   7,C   4,C   3)    174.4913         0.012350   
    144. D(C  10,C   7,C   4,C   3)     53.7247         0.012350   
    145. D(O   8,C   7,C   4,H  15)     56.9671         0.012350   
    146. D(H   9,O   8,C   7,C   4)   -173.0512         0.020479   
    147. D(H   9,O   8,C   7,H  14)     67.7092         0.020479   
    148. D(H   9,O   8,C   7,C  10)    -53.8357         0.020479   
    149. D(H  13,C  10,C   7,H  14)   -178.2137         0.012706   
    150. D(H  13,C  10,C   7,O   8)    -55.8873         0.012706   
    151. D(H  13,C  10,C   7,C   4)     61.8368         0.012706   
    152. D(O  11,C  10,C   7,H  14)    -56.7562         0.012706   
    153. D(O  11,C  10,C   7,C   4)   -176.7057         0.012706   
    154. D(C   1,C  10,C   7,H  14)     64.1887         0.012706   
    155. D(C   1,C  10,C   7,O   8)   -173.4849         0.012706   
    156. D(C   1,C  10,C   7,C   4)    -55.7608         0.012706   
    157. D(H  13,C  10,C   1,H  22)    173.8528         0.011933   
    158. D(H  13,C  10,C   1,O   2)    -61.9576         0.011933   
    159. D(H  13,C  10,C   1,O   0)     54.4008         0.011933   
    160. D(O  11,C  10,C   1,H  22)     51.5720         0.011933   
    161. D(O  11,C  10,C   7,O   8)     65.5702         0.012706   
    162. D(O  11,C  10,C   1,O   2)    175.7616         0.011933   
    163. D(O  11,C  10,C   1,O   0)    -67.8800         0.011933   
    164. D(C   7,C  10,C   1,H  22)    -67.4672         0.011933   
    165. D(C   7,C  10,C   1,O   2)     56.7224         0.011933   
    166. D(C   7,C  10,C   1,O   0)    173.0808         0.011933   
    167. D(H  12,O  11,C  10,H  13)    -63.8677         0.022371   
    168. D(H  12,O  11,C  10,C   1)     56.1280         0.022371   
    169. D(H  12,O  11,C  10,C   7)    176.0205         0.022371   
    170. D(H  20,C  16,C   3,C   4)     57.9931         0.012202   
    171. D(H  20,C  16,C   3,O   2)   -173.5267         0.012202   
    172. D(H  19,C  16,C   3,H  21)     57.6917         0.012202   
    173. D(H  19,C  16,C   3,C   4)    175.7155         0.012202   
    174. D(H  19,C  16,C   3,O   2)    -55.8043         0.012202   
    175. D(O  17,C  16,C   3,H  21)    178.3644         0.012202   
    176. D(O  17,C  16,C   3,C   4)    -63.6117         0.012202   
    177. D(H  20,C  16,C   3,H  21)    -60.0307         0.012202   
    178. D(O  17,C  16,C   3,O   2)     64.8685         0.012202   
    179. D(H  18,O  17,C  16,H  20)     43.7980         0.019940   
    180. D(H  18,O  17,C  16,H  19)    -77.5150         0.019940   
    181. D(H  18,O  17,C  16,C   3)    163.3374         0.019940   
    182. D(H  39,C  23,O   0,C   1)      0.2009         0.030651   
    183. D(O  33,C  23,O   0,C   1)    120.1518         0.030651   
    184. D(C  24,C  23,O   0,C   1)   -118.8033         0.030651   
    185. D(N  26,C  24,C  23,H  39)     84.6910         0.009712   
    186. D(N  26,C  24,C  23,O  33)    -35.0300         0.009712   
    187. D(N  26,C  24,C  23,O   0)   -153.8385         0.009712   
    188. D(O  25,C  24,C  23,H  39)    -92.3950         0.009712   
    189. D(O  25,C  24,C  23,O  33)    147.8840         0.009712   
    190. D(O  25,C  24,C  23,O   0)     29.0754         0.009712   
    191. D(H  38,N  26,C  24,O  25)      1.7466         0.032861   
    192. D(H  38,N  26,C  24,C  23)   -175.2831         0.032861   
    193. D(C  27,N  26,C  24,O  25)   -178.8299         0.032861   
    194. D(C  27,N  26,C  24,C  23)      4.1405         0.032861   
    195. D(C  32,C  27,N  26,H  38)   -166.4606         0.022944   
    196. D(C  32,C  27,N  26,C  24)     14.1333         0.022944   
    197. D(C  28,C  27,N  26,H  38)     11.7456         0.022944   
    198. D(C  28,C  27,N  26,C  24)   -167.6605         0.022944   
    199. D(H  37,C  28,C  27,C  32)   -179.7611         0.028017   
    200. D(H  37,C  28,C  27,N  26)      2.0677         0.028017   
    201. D(C  29,C  28,C  27,C  32)      0.9884         0.028017   
    202. D(C  29,C  28,C  27,N  26)   -177.1827         0.028017   
    203. D(H  36,C  29,C  28,H  37)      0.3450         0.027845   
    204. D(H  36,C  29,C  28,C  27)    179.5918         0.027845   
    205. D(C  30,C  29,C  28,H  37)   -179.6520         0.027845   
    206. D(C  30,C  29,C  28,C  27)     -0.4052         0.027845   
    207. D(Cl 35,C  30,C  29,H  36)      0.0090         0.027954   
    208. D(Cl 35,C  30,C  29,C  28)   -179.9940         0.027954   
    209. D(C  31,C  30,C  29,H  36)    179.6603         0.027954   
    210. D(C  31,C  30,C  29,C  28)     -0.3427         0.027954   
    211. D(H  34,C  31,C  30,Cl 35)     -0.3164         0.027861   
    212. D(H  34,C  31,C  30,C  29)   -179.9689         0.027861   
    213. D(C  32,C  31,C  30,Cl 35)   -179.8562         0.027861   
    214. D(C  32,C  31,C  30,C  29)      0.4913         0.027861   
    215. D(O  33,C  32,C  31,C  30)    177.3229         0.028537   
    216. D(C  27,C  32,C  31,H  34)   -179.4466         0.028537   
    217. D(C  27,C  32,C  31,C  30)      0.1032         0.028537   
    218. D(O  33,C  32,C  27,C  28)   -178.0347         0.026119   
    219. D(O  33,C  32,C  27,N  26)      0.2241         0.026119   
    220. D(C  31,C  32,C  27,C  28)     -0.8380         0.026119   
    221. D(O  33,C  32,C  31,H  34)     -2.2269         0.028537   
    222. D(C  31,C  32,C  27,N  26)    177.4208         0.026119   
    223. D(C  23,O  33,C  32,C  31)    149.5609         0.028599   
    224. D(C  23,O  33,C  32,C  27)    -33.2091         0.028599   
    225. D(C  32,O  33,C  23,H  39)    -69.5281         0.020345   
    226. D(C  32,O  33,C  23,C  24)     49.4949         0.020345   
    227. D(C  32,O  33,C  23,O   0)    168.7701         0.020345   
    -----------------------------------------------------------------

Number of atoms                         .... 40
Number of degrees of freedom            .... 227

         *************************************************************
         *                GEOMETRY OPTIMIZATION CYCLE   1            *
         *************************************************************
---------------------------------
CARTESIAN COORDINATES (ANGSTROEM)
---------------------------------
  O    -0.605200    0.592200   -0.768500
  C    -1.750600    0.046100   -0.166400
  O    -1.996700   -1.179000   -0.806100
  C    -3.214100   -1.835600   -0.473500
  C    -4.405000   -0.881600   -0.622700
  O    -5.560400   -1.533900   -0.146400
  H    -6.269500   -0.880200   -0.145000
  C    -4.179900    0.439500    0.084500
  O    -5.283900    1.266100   -0.236300
  H    -5.098900    2.144000    0.116300
  C    -2.877500    1.041600   -0.390000
  O    -2.657600    2.223900    0.335400
  H    -1.794100    2.596800    0.092400
  H    -2.938900    1.237000   -1.468800
  H    -4.126000    0.276100    1.164600
  H    -4.511900   -0.656500   -1.692100
  C    -3.144700   -2.573000    0.850400
  O    -2.964300   -1.662200    1.924100
  H    -3.181500   -2.101500    2.749600
  H    -2.302800   -3.271200    0.799500
  H    -4.073700   -3.136100    0.964400
  H    -3.322400   -2.612100   -1.234100
  H    -1.584200   -0.092600    0.907000
  C     0.556100    0.650000   -0.055300
  C     0.975000    2.125700    0.086900
  O     0.163900    3.022700    0.102200
  N     2.306700    2.314300    0.253500
  C     3.236200    1.266800    0.209400
  C     4.550000    1.418200    0.622300
  C     5.445300    0.366500    0.503900
  C     5.008600   -0.838200   -0.023600
  C     3.694300   -1.013400   -0.427800
  C     2.810600    0.043800   -0.307900
  O     1.533400   -0.102200   -0.752800
  H     3.348700   -1.951000   -0.839300
  Cl    6.120300   -2.156000   -0.174500
  H     6.472900    0.478500    0.817400
  H     4.877700    2.367600    1.027400
  H     2.617200    3.260100    0.424200
  H     0.436800    0.233800    0.956000

----------------------------
CARTESIAN COORDINATES (A.U.)
----------------------------
  NO LB    ZA    FRAG    MASS        X           Y           Z
   0 O   8.0000    0    15.999   -1.143662    1.119096   -1.452255
   1 C   6.0000    0    12.011   -3.308155    0.087116   -0.314450
   2 O   8.0000    0    15.999   -3.773216   -2.227987   -1.523308
   3 C   6.0000    0    12.011   -6.073769   -3.468781   -0.894785
   4 C   6.0000    0    12.011   -8.324244   -1.665983   -1.176732
   5 O   8.0000    0    15.999  -10.507633   -2.898651   -0.276656
   6 H   1.0000    0     1.008  -11.847638   -1.663337   -0.274010
   7 C   6.0000    0    12.011   -7.898866    0.830535    0.159682
   8 O   8.0000    0    15.999   -9.985124    2.392582   -0.446542
   9 H   1.0000    0     1.008   -9.635525    4.051573    0.219775
  10 C   6.0000    0    12.011   -5.437687    1.968339   -0.736993
  11 O   8.0000    0    15.999   -5.022136    4.202562    0.633814
  12 H   1.0000    0     1.008   -3.390358    4.907241    0.174611
  13 H   1.0000    0     1.008   -5.553716    2.337591   -2.775630
  14 H   1.0000    0     1.008   -7.797010    0.521753    2.200775
  15 H   1.0000    0     1.008   -8.526255   -1.240605   -3.197606
  16 C   6.0000    0    12.011   -5.942622   -4.862265    1.607023
  17 O   8.0000    0    15.999   -5.601715   -3.141103    3.636022
  18 H   1.0000    0     1.008   -6.012164   -3.971259    5.195991
  19 H   1.0000    0     1.008   -4.351661   -6.181672    1.510836
  20 H   1.0000    0     1.008   -7.698177   -5.926370    1.822452
  21 H   1.0000    0     1.008   -6.278426   -4.936154   -2.332111
  22 H   1.0000    0     1.008   -2.993704   -0.174989    1.713982
  23 C   6.0000    0    12.011    1.050877    1.228322   -0.104502
  24 C   6.0000    0    12.011    1.842483    4.016991    0.164217
  25 O   8.0000    0    15.999    0.309726    5.712075    0.193130
  26 N   7.0000    0    14.007    4.359031    4.373393    0.479046
  27 C   6.0000    0    12.011    6.115532    2.393905    0.395709
  28 C   6.0000    0    12.011    8.598254    2.680010    1.175977
  29 C   6.0000    0    12.011   10.290126    0.692585    0.952233
  30 C   6.0000    0    12.011    9.464882   -1.583968   -0.044598
  31 C   6.0000    0    12.011    6.981215   -1.915048   -0.808425
  32 C   6.0000    0    12.011    5.311264    0.082770   -0.581847
  33 O   8.0000    0    15.999    2.897706   -0.193130   -1.422586
  34 H   1.0000    0     1.008    6.328126   -3.686856   -1.586047
  35 Cl 17.0000    0    35.453   11.565691   -4.074250   -0.329757
  36 H   1.0000    0     1.008   12.232008    0.904234    1.544662
  37 H   1.0000    0     1.008    9.217517    4.474116    1.941505
  38 H   1.0000    0     1.008    4.945791    6.160696    0.801622
  39 H   1.0000    0     1.008    0.825432    0.441818    1.806578

      -----------------------------------------------------------      
     |                   =====================                   |     
     |                           x T B                           |     
     |                   =====================                   |     
     |                         S. Grimme                         |     
     |          Mulliken Center for Theoretical Chemistry        |     
     |                    University of Bonn                     |     
      -----------------------------------------------------------      

   * xtb version 6.7.1 (edcfbbe) compiled by 'conda@afd1a870197c' on 2025-04-11

   xtb is free software: you can redistribute it and/or modify it under
   the terms of the GNU Lesser General Public License as published by
   the Free Software Foundation, either version 3 of the License, or
   (at your option) any later version.
   
   xtb is distributed in the hope that it will be useful,
   but WITHOUT ANY WARRANTY; without even the implied warranty of
   MERCHANTABILITY or FITNESS FOR A PARTICULAR PURPOSE.  See the
   GNU Lesser General Public License for more details.
   
   Cite this work as:
   * C. Bannwarth, E. Caldeweyher, S. Ehlert, A. Hansen, P. Pracht,
     J. Seibert, S. Spicher, S. Grimme, WIREs Comput. Mol. Sci., 2020, 11,
     e01493. DOI: 10.1002/wcms.1493
   
   for GFN2-xTB:
   * C. Bannwarth, S. Ehlert and S. Grimme., J. Chem. Theory Comput., 2019,
     15, 1652-1671. DOI: 10.1021/acs.jctc.8b01176
   for GFN1-xTB:
   * S. Grimme, C. Bannwarth, P. Shushkov, J. Chem. Theory Comput., 2017,
     13, 1989-2009. DOI: 10.1021/acs.jctc.7b00118
   for GFN0-xTB:
   * P. Pracht, E. Caldeweyher, S. Ehlert, S. Grimme, ChemRxiv, 2019, preprint.
     DOI: 10.26434/chemrxiv.8326202.v1
   for GFN-FF:
   * S. Spicher and S. Grimme, Angew. Chem. Int. Ed., 2020, 59, 15665-15673.
     DOI: 10.1002/anie.202004239
   
   for ALPB and GBSA implicit solvation:
   * S. Ehlert, M. Stahn, S. Spicher, S. Grimme, J. Chem. Theory Comput.,
     2021, 17, 4250-4261. DOI: 10.1021/acs.jctc.1c00471
   
   for ddCOSMO and CPCM-X implicit solvation:
   * M. Stahn, S. Ehlert, S. Grimme, J. Phys. Chem. A,
     2023, XX, XXXX-XXXX. DOI: 10.1021/acs.jpca.3c04382
   
   for DFT-D4:
   * E. Caldeweyher, C. Bannwarth and S. Grimme, J. Chem. Phys., 2017,
     147, 034112. DOI: 10.1063/1.4993215
   * E. Caldeweyher, S. Ehlert, A. Hansen, H. Neugebauer, S. Spicher,
     C. Bannwarth and S. Grimme, J. Chem. Phys., 2019, 150, 154122.
     DOI: 10.1063/1.5090222
   * E. Caldeweyher, J.-M. Mewes, S. Ehlert and S. Grimme, Phys. Chem. Chem. Phys.
     2020, 22, 8499-8512. DOI: 10.1039/D0CP00502A
   
   for sTDA-xTB:
   * S. Grimme and C. Bannwarth, J. Chem. Phys., 2016, 145, 054103.
     DOI: 10.1063/1.4959605
   
   in the mass-spec context:
   * V. Asgeirsson, C. Bauer and S. Grimme, Chem. Sci., 2017, 8, 4879.
     DOI: 10.1039/c7sc00601b
   * J. Koopman and S. Grimme, ACS Omega 2019, 4, 12, 15120-15133.
     DOI: 10.1021/acsomega.9b02011
   
   for metadynamics refer to:
   * S. Grimme, J. Chem. Theory Comput., 2019, 155, 2847-2862
     DOI: 10.1021/acs.jctc.9b00143
   
   for SPH calculations refer to:
   * S. Spicher and S. Grimme, J. Chem. Theory Comput., 2021, 17, 1701-1714
     DOI: 10.1021/acs.jctc.0c01306
   
   for ONIOM refer to:
   * C. Plett, A. Katbashev, S. Ehlert, S. Grimme, M. Bursch,
     Phys. Chem. Chem. Phys., 2023, 25, 17860-17868. DOI: 10.1039/D3CP02178E
   
   for DIPRO refer to:
   * J. Kohn, N. Gildemeister, S. Grimme, D. Fazzi, A. Hansen,
     J. Chem. Phys., 2023, just accepted.
   
   for PTB refer to:
   * S. Grimme, M. Mueller, A. Hansen, J. Chem. Phys., 2023, 158, 124111.
     DOI: 10.1063/5.0137838
   
   with help from (in alphabetical order)
   P. Atkinson, C. Bannwarth, F. Bohle, G. Brandenburg, E. Caldeweyher
   M. Checinski, S. Dohm, S. Ehlert, S. Ehrlich, I. Gerasimov, C. Hölzer
   A. Katbashev, J. Kohn, J. Koopman, C. Lavigne, S. Lehtola, F. März, M. Müller,
   F. Musil, H. Neugebauer, J. Pisarek, C. Plett, P. Pracht, F. Pultar,
   J. Seibert, P. Shushkov, S. Spicher, M. Stahn, M. Steiner, T. Strunk,
   J. Stückrath, T. Rose, and J. Unsleber
   
 * started run on 2025/06/24 at 19:32:57.477     
   ID    Z sym.   atoms
    1    8 O      1, 3, 6, 9, 12, 18, 26, 34
    2    6 C      2, 4, 5, 8, 11, 17, 24, 25, 28-33
    3    1 H      7, 10, 13-16, 19-23, 35, 37-40
    4    7 N      27
    5   17 Cl     36

           -------------------------------------------------
          |                Calculation Setup                |
           -------------------------------------------------

          program call               : /scratch/aweiland/job_40605331/orca_xtb_wrapper/xtb xtb_test2_XTB.xyz --grad -c 0 -u 0 -P 1 --namespace xtb_test2 --input xtb_test2_XTB.input.tmp --acc 0.100000
          hostname                   : exp-2-27
          calculation namespace      : xtb_test2
          coordinate file            : xtb_test2_XTB.xyz
          omp threads                :                     1


           -------------------------------------------------
          |                 G F N 2 - x T B                 |
           -------------------------------------------------

        Reference                      10.1021/acs.jctc.8b01176
      * Hamiltonian:
        H0-scaling (s, p, d)           1.850000    2.230000    2.230000
        zeta-weighting                 0.500000
      * Dispersion:
        s8                             2.700000
        a1                             0.520000
        a2                             5.000000
        s9                             5.000000
      * Repulsion:
        kExp                           1.500000    1.000000
        rExp                           1.000000
      * Coulomb:
        alpha                          2.000000
        third order                    shell-resolved
        anisotropic                    true
        a3                             3.000000
        a5                             4.000000
        cn-shift                       1.200000
        cn-exp                         4.000000
        max-rad                        5.000000


          ...................................................
          :                      SETUP                      :
          :.................................................:
          :  # basis functions                 118          :
          :  # atomic orbitals                 117          :
          :  # shells                           65          :
          :  # electrons                       132          :
          :  max. iterations                   250          :
          :  Hamiltonian                  GFN2-xTB          :
          :  restarted?                      false          :
          :  GBSA solvation                  false          :
          :  PC potential                    false          :
          :  electronic temp.          300.0000000     K    :
          :  accuracy                    0.1000000          :
          :  -> integral cutoff          0.3500000E+02      :
          :  -> integral neglect         0.1000000E-08      :
          :  -> SCF convergence          0.1000000E-06 Eh   :
          :  -> wf. convergence          0.1000000E-04 e    :
          :  Broyden damping             0.4000000          :
          :  net charge                          0          :
          :  unpaired electrons                  0          :
          ...................................................

 iter      E             dE          RMSdq      gap      omega  full diag
   1    -78.7773054 -0.787773E+02  0.492E+00    3.34       0.0  T
   2    -78.8725992 -0.952938E-01  0.275E+00    3.51       1.0  T
   3    -78.8709196  0.167962E-02  0.110E+00    3.38       1.0  T
   4    -78.8787466 -0.782699E-02  0.312E-01    3.21       1.0  T
   5    -78.8807254 -0.197880E-02  0.103E-01    3.30       1.0  T
   6    -78.8807773 -0.518858E-04  0.443E-02    3.34       1.0  T
   7    -78.8807934 -0.161582E-04  0.203E-02    3.34       1.0  T
   8    -78.8807972 -0.376749E-05  0.623E-03    3.34       2.5  T
   9    -78.8807974 -0.190160E-06  0.315E-03    3.34       5.0  T
  10    -78.8807975 -0.979917E-07  0.198E-03    3.34       8.0  T
  11    -78.8807975 -0.265519E-07  0.129E-03    3.34      12.3  T
  12    -78.8807975 -0.180475E-07  0.894E-04    3.34      17.7  T
  13    -78.8807975 -0.117332E-07  0.341E-04    3.34      46.3  T
  14    -78.8807975 -0.148945E-08  0.160E-04    3.34      99.0  T
  15    -78.8807975 -0.224261E-09  0.720E-05    3.34     219.7  T
  16    -78.8807975 -0.374740E-10  0.448E-05    3.34     353.2  T

   *** convergence criteria satisfied after 16 iterations ***

         #    Occupation            Energy/Eh            Energy/eV
      -------------------------------------------------------------
         1        2.0000           -1.0662571             -29.0143
       ...           ...                  ...                  ...
        60        2.0000           -0.4288206             -11.6688
        61        2.0000           -0.4242397             -11.5442
        62        2.0000           -0.4174835             -11.3603
        63        2.0000           -0.4131267             -11.2417
        64        2.0000           -0.4097223             -11.1491
        65        2.0000           -0.4029545             -10.9649
        66        2.0000           -0.3993211             -10.8661 (HOMO)
        67                         -0.2766010              -7.5267 (LUMO)
        68                         -0.2580843              -7.0228
        69                         -0.2309047              -6.2832
        70                         -0.1546133              -4.2072
        71                         -0.1266122              -3.4453
       ...                                ...                  ...
       117                          0.6388508              17.3840
      -------------------------------------------------------------
                  HL-Gap            0.1227200 Eh            3.3394 eV
             Fermi-level           -0.3379611 Eh           -9.1964 eV

 SCC (total)                   0 d,  0 h,  0 min,  0.077 sec
 SCC setup                      ...        0 min,  0.001 sec (  1.451%)
 Dispersion                     ...        0 min,  0.000 sec (  0.543%)
 classical contributions        ...        0 min,  0.001 sec (  1.136%)
 integral evaluation            ...        0 min,  0.009 sec ( 11.752%)
 iterations                     ...        0 min,  0.041 sec ( 52.571%)
 molecular gradient             ...        0 min,  0.025 sec ( 31.980%)
 printout                       ...        0 min,  0.000 sec (  0.556%)

         :::::::::::::::::::::::::::::::::::::::::::::::::::::
         ::                     SUMMARY                     ::
         :::::::::::::::::::::::::::::::::::::::::::::::::::::
         :: total energy             -78.165758470273 Eh    ::
         :: gradient norm              0.036334326030 Eh/a0 ::
         :: HOMO-LUMO gap              3.339382034659 eV    ::
         ::.................................................::
         :: SCC energy               -78.880779688497 Eh    ::
         :: -> isotropic ES            0.184118512626 Eh    ::
         :: -> anisotropic ES         -0.006617071300 Eh    ::
         :: -> anisotropic XC         -0.006675214721 Eh    ::
         :: -> dispersion             -0.042913555075 Eh    ::
         :: repulsion energy           0.715021218224 Eh    ::
         :: add. restraining           0.000000000000 Eh    ::
         :: total charge               0.000000000000 e     ::
         :::::::::::::::::::::::::::::::::::::::::::::::::::::


Property printout bound to 'properties.out'

           -------------------------------------------------
          | TOTAL ENERGY              -78.165758470273 Eh   |
          | GRADIENT NORM               0.036334326030 Eh/α |
          | HOMO-LUMO GAP               3.339382034659 eV   |
           -------------------------------------------------

------------------------------------------------------------------------
 * finished run on 2025/06/24 at 19:32:57.688     
------------------------------------------------------------------------
 total:
 * wall-time:     0 d,  0 h,  0 min,  0.211 sec
 *  cpu-time:     0 d,  0 h,  0 min,  0.086 sec
 * ratio c/w:     0.410 speedup
 SCF:
 * wall-time:     0 d,  0 h,  0 min,  0.077 sec
 *  cpu-time:     0 d,  0 h,  0 min,  0.073 sec
 * ratio c/w:     0.939 speedup


-------------------------   --------------------
FINAL SINGLE POINT ENERGY       -78.165758470270
-------------------------   --------------------

------------------------------------------------------------------------------
                         ORCA GEOMETRY RELAXATION STEP
------------------------------------------------------------------------------

Reading the OPT-File                    .... done
Getting information on internals        .... done
Copying old internal coords+grads       .... done
Making the new internal coordinates     .... (new redundants).... done
Validating the new internal coordinates .... (new redundants).... done
Calculating the B-matrix                .... done
Calculating the G,G- and P matrices     .... done
Transforming gradient to internals      .... done
Projecting the internal gradient        .... done
Number of atoms                         ....  40
Number of internal coordinates          .... 227
Current Energy                          ....   -78.165758470 Eh
Current gradient norm                   ....     0.036334326 Eh/bohr
Maximum allowed component of the step   ....  0.300
Current trust radius                    ....  0.300
Evaluating the initial hessian          ....  (Almloef) done
Projecting the Hessian                  .... done
Forming the augmented Hessian           .... done
Diagonalizing the augmented Hessian     .... done
Last element of RFO vector              ....  0.984185756
Lowest eigenvalues of augmented Hessian:
 -0.003154426  0.012206990  0.015014070  0.016659833  0.016960070
Length of the computed step             ....  0.179985827
The final length of the internal step   ....  0.179985827
Converting the step to cartesian space:
 Initial RMS(Int)=    0.0119460789
Transforming coordinates:
 Iter   0:  RMS(Cart)=    0.0509248036 RMS(Int)=    0.7219012767
 Iter   1:  RMS(Cart)=    0.0008623890 RMS(Int)=    0.0003146899
 Iter   2:  RMS(Cart)=    0.0000269637 RMS(Int)=    0.0000081803
 Iter   3:  RMS(Cart)=    0.0000011846 RMS(Int)=    0.0000004726
 Iter   4:  RMS(Cart)=    0.0000000399 RMS(Int)=    0.0000000163
done
Storing new coordinates                 .... done

                                .--------------------.
          ----------------------|Geometry convergence|-------------------------
          Item                value                   Tolerance       Converged
          ---------------------------------------------------------------------
          RMS gradient        0.0020636118            0.0001000000      NO
          MAX gradient        0.0108688790            0.0003000000      NO
          RMS step            0.0119460789            0.0020000000      NO
          MAX step            0.0431257534            0.0040000000      NO
          ........................................................
          Max(Bonds)      0.0136      Max(Angles)    1.12
          Max(Dihed)        2.47      Max(Improp)    0.00
          ---------------------------------------------------------------------

The optimization has not yet converged - more geometry cycles are needed


    ---------------------------------------------------------------------------
                         Redundant Internal Coordinates
                            (Angstroem and degrees)

        Definition                    Value    dE/dq     Step     New-Value
    ----------------------------------------------------------------------------
     1. B(C   1,O   0)                1.4045 -0.002082  0.0021    1.4066   
     2. B(O   2,C   1)                1.4038 -0.000693  0.0005    1.4043   
     3. B(C   3,O   2)                1.4226  0.002589 -0.0035    1.4191   
     4. B(C   4,C   3)                1.5332 -0.004268  0.0050    1.5382   
     5. B(O   5,C   4)                1.4097  0.002786 -0.0028    1.4069   
     6. B(H   6,O   5)                0.9644 -0.001241  0.0013    0.9657   
     7. B(C   7,C   4)                1.5153 -0.008226  0.0112    1.5265   
     8. B(O   8,C   7)                1.4160  0.002390 -0.0025    1.4135   
     9. B(H   9,O   8)                0.9640 -0.000567  0.0006    0.9646   
    10. B(C  10,C   7)                1.5113 -0.009000  0.0127    1.5240   
    11. B(C  10,C   1)                1.5202 -0.008868  0.0130    1.5332   
    12. B(O  11,C  10)                1.4044 -0.000603  0.0006    1.4050   
    13. B(H  12,O  11)                0.9715 -0.001786  0.0019    0.9733   
    14. B(H  13,C  10)                1.0981 -0.002094  0.0031    1.1012   
    15. B(H  14,C   7)                1.0937 -0.003348  0.0049    1.0987   
    16. B(H  15,C   4)                1.0981 -0.002815  0.0042    1.1023   
    17. B(C  16,C   3)                1.5170 -0.010182  0.0136    1.5306   
    18. B(O  17,C  16)                1.4195  0.002403 -0.0025    1.4170   
    19. B(H  18,O  17)                0.9600 -0.002647  0.0027    0.9627   
    20. B(H  19,C  16)                1.0949 -0.002189  0.0032    1.0982   
    21. B(H  20,C  16)                1.0923 -0.001350  0.0020    1.0943   
    22. B(H  21,C   3)                1.0923 -0.002657  0.0039    1.0962   
    23. B(H  22,C   1)                1.0950 -0.004601  0.0068    1.1019   
    24. B(C  23,O   0)                1.3640 -0.010869  0.0093    1.3733   
    25. B(C  24,C  23)                1.5406 -0.003489  0.0047    1.5453   
    26. B(O  25,C  24)                1.2094 -0.001939  0.0009    1.2104   
    27. B(N  26,C  24)                1.3553  0.003908 -0.0041    1.3512   
    28. B(C  27,N  26)                1.4011  0.003485 -0.0040    1.3971   
    29. B(C  28,C  27)                1.3855 -0.000576  0.0005    1.3860   
    30. B(C  29,C  28)                1.3862  0.002216 -0.0021    1.3841   
    31. B(C  30,C  29)                1.3857 -0.000755  0.0003    1.3860   
    32. B(C  31,C  30)                1.3862 -0.000737  0.0005    1.3867   
    33. B(C  32,C  31)                1.3831 -0.002449  0.0023    1.3854   
    34. B(C  32,C  27)                1.3944 -0.005074  0.0051    1.3995   
    35. B(O  33,C  32)                1.3603 -0.001318  0.0020    1.3623   
    36. B(O  33,C  23)                1.4168 -0.000502  0.0009    1.4178   
    37. B(H  34,C  31)                1.0807  0.002439 -0.0034    1.0772   
    38. B(Cl 35,C  30)                1.7307  0.003244 -0.0042    1.7264   
    39. B(H  36,C  29)                1.0802  0.001853 -0.0026    1.0776   
    40. B(H  37,C  28)                1.0830  0.002365 -0.0034    1.0796   
    41. B(H  38,N  26)                1.0100 -0.002078  0.0025    1.0125   
    42. B(H  39,C  23)                1.1001 -0.006295  0.0095    1.1096   
    43. A(C   1,O   0,C  23)          119.12 -0.001327    0.18    119.30   
    44. A(O   2,C   1,H  22)          111.27  0.001061   -0.40    110.87   
    45. A(O   0,C   1,H  22)          110.21 -0.000671    0.11    110.33   
    46. A(O   0,C   1,O   2)          106.67  0.000493    0.14    106.82   
    47. A(O   0,C   1,C  10)          106.67 -0.000345    0.16    106.83   
    48. A(O   2,C   1,C  10)          111.99 -0.002218    0.37    112.37   
    49. A(C  10,C   1,H  22)          109.86  0.001568   -0.35    109.51   
    50. A(C   1,O   2,C   3)          116.51  0.000623   -0.43    116.07   
    51. A(C   4,C   3,H  21)          107.31 -0.000605    0.39    107.70   
    52. A(O   2,C   3,C  16)          112.91 -0.000390   -0.05    112.86   
    53. A(C   4,C   3,C  16)          115.02  0.005903   -1.12    113.89   
    54. A(O   2,C   3,H  21)          104.49  0.002442   -0.34    104.14   
    55. A(O   2,C   3,C   4)          110.78 -0.004537    0.52    111.30   
    56. A(C  16,C   3,H  21)          105.47 -0.003025    0.71    106.18   
    57. A(C   3,C   4,C   7)          112.44  0.002367   -0.72    111.72   
    58. A(C   7,C   4,H  15)          106.87 -0.001243    0.37    107.24   
    59. A(C   3,C   4,O   5)          108.41 -0.001843    0.30    108.71   
    60. A(O   5,C   4,H  15)          110.13  0.001089   -0.21    109.92   
    61. A(C   3,C   4,H  15)          107.33 -0.000689    0.42    107.75   
    62. A(O   5,C   4,C   7)          111.56  0.000332   -0.14    111.42   
    63. A(C   4,O   5,H   6)          106.83  0.001799   -0.29    106.54   
    64. A(O   8,C   7,C  10)          111.61  0.000068   -0.02    111.59   
    65. A(C   4,C   7,C  10)          109.20  0.000916   -0.02    109.18   
    66. A(C  10,C   7,H  14)          109.09  0.000147   -0.23    108.86   
    67. A(O   8,C   7,H  14)          110.45  0.000850   -0.32    110.13   
    68. A(C   4,C   7,H  14)          109.75 -0.000355    0.08    109.83   
    69. A(C   4,C   7,O   8)          106.70 -0.001659    0.53    107.23   
    70. A(C   7,O   8,H   9)          107.41  0.002077   -0.33    107.08   
    71. A(C   1,C  10,C   7)          109.38  0.002112   -0.04    109.34   
    72. A(O  11,C  10,H  13)          111.49  0.001088   -0.31    111.18   
    73. A(C   7,C  10,H  13)          109.34 -0.000984    0.13    109.47   
    74. A(C   1,C  10,H  13)          107.61 -0.000475   -0.06    107.55   
    75. A(C   1,C  10,O  11)          111.05 -0.000751    0.09    111.14   
    76. A(C   7,C  10,O  11)          107.95 -0.000947    0.19    108.14   
    77. A(C  10,O  11,H  12)          109.46  0.000348   -0.06    109.40   
    78. A(H  19,C  16,H  20)          109.27 -0.000646    0.07    109.34   
    79. A(C   3,C  16,O  17)          110.73 -0.004141    0.66    111.39   
    80. A(C   3,C  16,H  19)          107.73 -0.000156    0.16    107.90   
    81. A(O  17,C  16,H  20)          111.10  0.001680   -0.37    110.73   
    82. A(C   3,C  16,H  20)          107.62  0.001142   -0.17    107.45   
    83. A(O  17,C  16,H  19)          110.28  0.002058   -0.33    109.95   
    84. A(C  16,O  17,H  18)          109.15  0.001543   -0.25    108.91   
    85. A(C  24,C  23,O  33)          111.50 -0.001194    0.63    112.12   
    86. A(O   0,C  23,O  33)          107.90 -0.000601    0.28    108.18   
    87. A(O   0,C  23,H  39)          111.86 -0.000375   -0.06    111.80   
    88. A(O   0,C  23,C  24)          108.68  0.000614   -0.22    108.46   
    89. A(O  33,C  23,H  39)          109.06  0.000138   -0.18    108.87   
    90. A(C  24,C  23,H  39)          107.88  0.001385   -0.43    107.45   
    91. A(O  25,C  24,N  26)          123.66  0.001114   -0.15    123.50   
    92. A(C  23,C  24,N  26)          114.32 -0.000948    0.21    114.53   
    93. A(C  23,C  24,O  25)          121.95 -0.000177   -0.01    121.94   
    94. A(C  24,N  26,C  27)          122.95 -0.000305    0.08    123.03   
    95. A(C  27,N  26,H  38)          120.10  0.002158   -0.35    119.74   
    96. A(C  24,N  26,H  38)          116.95 -0.001854    0.29    117.23   
    97. A(C  28,C  27,C  32)          119.72 -0.000964    0.15    119.88   
    98. A(N  26,C  27,C  32)          117.70 -0.000434    0.18    117.88   
    99. A(N  26,C  27,C  28)          122.55  0.001395   -0.34    122.21   
   100. A(C  27,C  28,C  29)          120.27  0.000156   -0.01    120.26   
   101. A(C  29,C  28,H  37)          120.11  0.000061   -0.02    120.09   
   102. A(C  27,C  28,H  37)          119.62 -0.000217    0.03    119.64   
   103. A(C  28,C  29,C  30)          119.24 -0.000906    0.07    119.31   
   104. A(C  30,C  29,H  36)          120.03 -0.000100    0.05    120.08   
   105. A(C  28,C  29,H  36)          120.73  0.001007   -0.12    120.60   
   106. A(C  29,C  30,Cl 35)          119.52  0.000298   -0.03    119.49   
   107. A(C  29,C  30,C  31)          121.31 -0.000577    0.06    121.37   
   108. A(C  31,C  30,Cl 35)          119.17  0.000278   -0.03    119.14   
   109. A(C  32,C  31,H  34)          119.46  0.000270   -0.08    119.38   
   110. A(C  30,C  31,H  34)          121.59 -0.000170   -0.01    121.58   
   111. A(C  30,C  31,C  32)          118.94 -0.000099    0.10    119.04   
   112. A(C  31,C  32,O  33)          119.31 -0.001709   -0.04    119.27   
   113. A(C  27,C  32,O  33)          120.13 -0.000681    0.42    120.55   
   114. A(C  27,C  32,C  31)          120.50  0.002389   -0.36    120.14   
   115. A(C  23,O  33,C  32)          115.44  0.002458    0.08    115.53   
   116. D(H  22,C   1,O   0,C  23)     11.02 -0.000439    0.88     11.90   
   117. D(O   2,C   1,O   0,C  23)   -109.90 -0.001639    1.21   -108.69   
   118. D(C  10,C   1,O   0,C  23)    130.24  0.000869    0.62    130.87   
   119. D(C   3,O   2,C   1,H  22)     67.47 -0.000197   -0.49     66.98   
   120. D(C   3,O   2,C   1,O   0)   -172.28 -0.000096   -0.49   -172.78   
   121. D(C   3,O   2,C   1,C  10)    -55.93 -0.001402   -0.01    -55.94   
   122. D(H  21,C   3,O   2,C   1)    166.76 -0.001354    1.85    168.61   
   123. D(C  16,C   3,O   2,C   1)    -79.15 -0.003706    2.47    -76.68   
   124. D(C   4,C   3,O   2,C   1)     51.50  0.000137    1.33     52.83   
   125. D(C   7,C   4,C   3,C  16)     79.56  0.001256   -1.99     77.57   
   126. D(O   5,C   4,C   3,C  16)    -44.25  0.000556   -1.54    -45.79   
   127. D(O   5,C   4,C   3,H  21)     72.73 -0.000171   -1.04     71.69   
   128. D(O   5,C   4,C   3,O   2)   -173.78  0.000095   -0.97   -174.75   
   129. D(C   7,C   4,C   3,H  21)   -163.46  0.000529   -1.49   -164.95   
   130. D(H  15,C   4,C   3,H  21)    -46.20 -0.000083   -1.19    -47.39   
   131. D(H  15,C   4,C   3,O   2)     67.28  0.000182   -1.12     66.16   
   132. D(C   7,C   4,C   3,O   2)    -49.97  0.000795   -1.42    -51.39   
   133. D(H  15,C   4,C   3,C  16)   -163.19  0.000644   -1.69   -164.88   
   134. D(H   6,O   5,C   4,C   3)    172.93  0.001299   -0.98    171.95   
   135. D(H   6,O   5,C   4,H  15)    -69.91  0.000008   -0.42    -70.33   
   136. D(H   6,O   5,C   4,C   7)     48.60 -0.000626   -0.18     48.41   
   137. D(H  14,C   7,C   4,H  15)    176.66  0.000206    0.07    176.73   
   138. D(H  14,C   7,C   4,O   5)     56.23 -0.000530    0.17     56.40   
   139. D(H  14,C   7,C   4,C   3)    -65.82 -0.000088    0.41    -65.41   
   140. D(C  10,C   7,C   4,O   5)    175.77 -0.000005   -0.07    175.70   
   141. D(C  10,C   7,C   4,H  15)    -63.80  0.000731   -0.17    -63.97   
   142. D(O   8,C   7,C   4,O   5)    -63.46 -0.000382    0.20    -63.26   
   143. D(O   8,C   7,C   4,C   3)    174.49  0.000059    0.44    174.93   
   144. D(C  10,C   7,C   4,C   3)     53.72  0.000436    0.16     53.89   
   145. D(O   8,C   7,C   4,H  15)     56.97  0.000353    0.10     57.07   
   146. D(H   9,O   8,C   7,C   4)   -173.05 -0.001002    1.55   -171.50   
   147. D(H   9,O   8,C   7,H  14)     67.71 -0.000058    1.32     69.02   
   148. D(H   9,O   8,C   7,C  10)    -53.84 -0.000881    1.84    -51.99   
   149. D(H  13,C  10,C   7,H  14)   -178.21 -0.000456    0.70   -177.52   
   150. D(H  13,C  10,C   7,O   8)    -55.89  0.000764    0.12    -55.76   
   151. D(H  13,C  10,C   7,C   4)     61.84 -0.000662    0.75     62.59   
   152. D(O  11,C  10,C   7,H  14)    -56.76 -0.000296    0.51    -56.24   
   153. D(O  11,C  10,C   7,C   4)   -176.71 -0.000503    0.57   -176.14   
   154. D(C   1,C  10,C   7,H  14)     64.19 -0.000536    0.71     64.90   
   155. D(C   1,C  10,C   7,O   8)   -173.48  0.000684    0.14   -173.35   
   156. D(C   1,C  10,C   7,C   4)    -55.76 -0.000742    0.77    -54.99   
   157. D(H  13,C  10,C   1,H  22)    173.85 -0.000086   -0.42    173.44   
   158. D(H  13,C  10,C   1,O   2)    -61.96  0.000858   -0.93    -62.88   
   159. D(H  13,C  10,C   1,O   0)     54.40  0.000059   -0.46     53.94   
   160. D(O  11,C  10,C   1,H  22)     51.57 -0.000656   -0.05     51.52   
   161. D(O  11,C  10,C   7,O   8)     65.57  0.000923   -0.06     65.51   
   162. D(O  11,C  10,C   1,O   2)    175.76  0.000288   -0.56    175.20   
   163. D(O  11,C  10,C   1,O   0)    -67.88 -0.000511   -0.09    -67.97   
   164. D(C   7,C  10,C   1,H  22)    -67.47 -0.000366   -0.31    -67.78   
   165. D(C   7,C  10,C   1,O   2)     56.72  0.000578   -0.82     55.90   
   166. D(C   7,C  10,C   1,O   0)    173.08 -0.000221   -0.35    172.73   
   167. D(H  12,O  11,C  10,H  13)    -63.87  0.000335   -1.23    -65.10   
   168. D(H  12,O  11,C  10,C   1)     56.13 -0.000045   -1.45     54.67   
   169. D(H  12,O  11,C  10,C   7)    176.02  0.001501   -1.33    174.69   
   170. D(H  20,C  16,C   3,C   4)     57.99  0.000748    0.49     58.49   
   171. D(H  20,C  16,C   3,O   2)   -173.53 -0.000732    0.17   -173.35   
   172. D(H  19,C  16,C   3,H  21)     57.69 -0.000013    0.23     57.92   
   173. D(H  19,C  16,C   3,C   4)    175.72  0.000510    0.57    176.28   
   174. D(H  19,C  16,C   3,O   2)    -55.80 -0.000970    0.25    -55.56   
   175. D(O  17,C  16,C   3,H  21)    178.36 -0.000061    0.32    178.68   
   176. D(O  17,C  16,C   3,C   4)    -63.61  0.000462    0.65    -62.96   
   177. D(H  20,C  16,C   3,H  21)    -60.03  0.000225    0.15    -59.88   
   178. D(O  17,C  16,C   3,O   2)     64.87 -0.001018    0.33     65.20   
   179. D(H  18,O  17,C  16,H  20)     43.80  0.000562    0.05     43.85   
   180. D(H  18,O  17,C  16,H  19)    -77.51 -0.001135    0.43    -77.08   
   181. D(H  18,O  17,C  16,C   3)    163.34  0.000369    0.02    163.36   
   182. D(H  39,C  23,O   0,C   1)      0.20  0.001178   -0.89     -0.69   
   183. D(O  33,C  23,O   0,C   1)    120.15  0.000732   -0.97    119.18   
   184. D(C  24,C  23,O   0,C   1)   -118.80 -0.000704   -0.18   -118.98   
   185. D(N  26,C  24,C  23,H  39)     84.69  0.000251    0.55     85.24   
   186. D(N  26,C  24,C  23,O  33)    -35.03 -0.000091    0.68    -34.35   
   187. D(N  26,C  24,C  23,O   0)   -153.84  0.000979    0.09   -153.74   
   188. D(O  25,C  24,C  23,H  39)    -92.39  0.000459   -0.40    -92.79   
   189. D(O  25,C  24,C  23,O  33)    147.88  0.000118   -0.27    147.61   
   190. D(O  25,C  24,C  23,O   0)     29.08  0.001188   -0.85     28.22   
   191. D(H  38,N  26,C  24,O  25)      1.75  0.000137    0.46      2.20   
   192. D(H  38,N  26,C  24,C  23)   -175.28  0.000394   -0.52   -175.80   
   193. D(C  27,N  26,C  24,O  25)   -178.83  0.000054    1.48   -177.35   
   194. D(C  27,N  26,C  24,C  23)      4.14  0.000311    0.51      4.65   
   195. D(C  32,C  27,N  26,H  38)   -166.46  0.000206    0.38   -166.08   
   196. D(C  32,C  27,N  26,C  24)     14.13  0.000314   -0.68     13.45   
   197. D(C  28,C  27,N  26,H  38)     11.75  0.000044    0.13     11.87   
   198. D(C  28,C  27,N  26,C  24)   -167.66  0.000152   -0.93   -168.59   
   199. D(H  37,C  28,C  27,C  32)   -179.76  0.000106   -0.31   -180.08   
   200. D(H  37,C  28,C  27,N  26)      2.07  0.000261   -0.06      2.01   
   201. D(C  29,C  28,C  27,C  32)      0.99  0.000149   -0.27      0.72   
   202. D(C  29,C  28,C  27,N  26)   -177.18  0.000304   -0.01   -177.20   
   203. D(H  36,C  29,C  28,H  37)      0.35  0.000017    0.08      0.42   
   204. D(H  36,C  29,C  28,C  27)    179.59 -0.000028    0.03    179.62   
   205. D(C  30,C  29,C  28,H  37)   -179.65 -0.000161    0.49   -179.16   
   206. D(C  30,C  29,C  28,C  27)     -0.41 -0.000206    0.44      0.04   
   207. D(Cl 35,C  30,C  29,H  36)      0.01 -0.000026    0.12      0.12   
   208. D(Cl 35,C  30,C  29,C  28)   -179.99  0.000150   -0.29   -180.29   
   209. D(C  31,C  30,C  29,H  36)    179.66 -0.000069    0.15    179.81   
   210. D(C  31,C  30,C  29,C  28)     -0.34  0.000107   -0.26     -0.60   
   211. D(H  34,C  31,C  30,Cl 35)     -0.32  0.000117   -0.13     -0.44   
   212. D(H  34,C  31,C  30,C  29)   -179.97  0.000159   -0.16   -180.13   
   213. D(C  32,C  31,C  30,Cl 35)   -179.86  0.000011   -0.06   -179.92   
   214. D(C  32,C  31,C  30,C  29)      0.49  0.000054   -0.10      0.40   
   215. D(O  33,C  32,C  31,C  30)    177.32 -0.000128    0.60    177.93   
   216. D(C  27,C  32,C  31,H  34)   -179.45 -0.000198    0.33   -179.11   
   217. D(C  27,C  32,C  31,C  30)      0.10 -0.000097    0.27      0.37   
   218. D(O  33,C  32,C  27,C  28)   -178.03  0.000055   -0.41   -178.45   
   219. D(O  33,C  32,C  27,N  26)      0.22 -0.000058   -0.67     -0.44   
   220. D(C  31,C  32,C  27,C  28)     -0.84 -0.000004   -0.09     -0.93   
   221. D(O  33,C  32,C  31,H  34)     -2.23 -0.000229    0.66     -1.56   
   222. D(C  31,C  32,C  27,N  26)    177.42 -0.000117   -0.34    177.08   
   223. D(C  23,O  33,C  32,C  31)    149.56 -0.001686    1.88    151.44   
   224. D(C  23,O  33,C  32,C  27)    -33.21 -0.001630    2.18    -31.03   
   225. D(C  32,O  33,C  23,H  39)    -69.53  0.001285   -1.97    -71.50   
   226. D(C  32,O  33,C  23,C  24)     49.49  0.002355   -2.24     47.26   
   227. D(C  32,O  33,C  23,O   0)    168.77  0.002022   -1.96    166.81   
    ----------------------------------------------------------------------------

         *************************************************************
         *                GEOMETRY OPTIMIZATION CYCLE   2            *
         *************************************************************
---------------------------------
CARTESIAN COORDINATES (ANGSTROEM)
---------------------------------
  O    -0.604193    0.593348   -0.756775
  C    -1.756170    0.041119   -0.168145
  O    -1.994020   -1.183929   -0.812097
  C    -3.208200   -1.838489   -0.478508
  C    -4.414918   -0.901154   -0.655313
  O    -5.569940   -1.561185   -0.197428
  H    -6.280267   -0.906945   -0.201400
  C    -4.208709    0.427566    0.067294
  O    -5.310153    1.253618   -0.252800
  H    -5.113915    2.133175    0.091078
  C    -2.892689    1.046298   -0.388445
  O    -2.681363    2.220703    0.353300
  H    -1.805549    2.586364    0.137333
  H    -2.942022    1.260650   -1.467468
  H    -4.165107    0.259067    1.152082
  H    -4.511674   -0.676934   -1.730195
  C    -3.155337   -2.530740    0.885622
  O    -3.011786   -1.591363    1.936696
  H    -3.241873   -2.016953    2.768977
  H    -2.301210   -3.220982    0.880894
  H    -4.081932   -3.101503    1.000100
  H    -3.294946   -2.637887   -1.223610
  H    -1.600314   -0.107184    0.912515
  C     0.565208    0.632285   -0.037718
  C     0.989872    2.108979    0.126310
  O     0.181770    3.009980    0.139481
  N     2.317701    2.295569    0.293174
  C     3.247572    1.255246    0.222714
  C     4.565774    1.414317    0.620233
  C     5.467313    0.373597    0.479074
  C     5.037980   -0.827125   -0.064070
  C     3.721103   -1.011479   -0.457524
  C     2.822640    0.032636   -0.309586
  O     1.538104   -0.128754   -0.733683
  H     3.384149   -1.942514   -0.881893
  Cl    6.160394   -2.125778   -0.249146
  H     6.494878    0.493204    0.780690
  H     4.889858    2.359447    1.029243
  H     2.634150    3.241005    0.469812
  H     0.437721    0.207724    0.979483

----------------------------
CARTESIAN COORDINATES (A.U.)
----------------------------
  NO LB    ZA    FRAG    MASS        X           Y           Z
   0 O   8.0000    0    15.999   -1.141760    1.121266   -1.430097
   1 C   6.0000    0    12.011   -3.318681    0.077703   -0.317748
   2 O   8.0000    0    15.999   -3.768151   -2.237301   -1.534641
   3 C   6.0000    0    12.011   -6.062620   -3.474241   -0.904249
   4 C   6.0000    0    12.011   -8.342986   -1.702934   -1.238363
   5 O   8.0000    0    15.999  -10.525661   -2.950212   -0.373084
   6 H   1.0000    0     1.008  -11.867985   -1.713878   -0.380591
   7 C   6.0000    0    12.011   -7.953307    0.807982    0.127167
   8 O   8.0000    0    15.999  -10.034736    2.368995   -0.477723
   9 H   1.0000    0     1.008   -9.663898    4.031116    0.172113
  10 C   6.0000    0    12.011   -5.466390    1.977216   -0.734056
  11 O   8.0000    0    15.999   -5.067042    4.196520    0.667641
  12 H   1.0000    0     1.008   -3.411994    4.887520    0.259522
  13 H   1.0000    0     1.008   -5.559615    2.382283   -2.773112
  14 H   1.0000    0     1.008   -7.870912    0.489565    2.177119
  15 H   1.0000    0     1.008   -8.525828   -1.279220   -3.269595
  16 C   6.0000    0    12.011   -5.962723   -4.782406    1.673583
  17 O   8.0000    0    15.999   -5.691450   -3.007240    3.659825
  18 H   1.0000    0     1.008   -6.126253   -3.811489    5.232609
  19 H   1.0000    0     1.008   -4.348657   -6.086774    1.664648
  20 H   1.0000    0     1.008   -7.713734   -5.860990    1.889915
  21 H   1.0000    0     1.008   -6.226545   -4.984885   -2.312287
  22 H   1.0000    0     1.008   -3.024155   -0.202548    1.724403
  23 C   6.0000    0    12.011    1.068089    1.194845   -0.071278
  24 C   6.0000    0    12.011    1.870587    3.985393    0.238691
  25 O   8.0000    0    15.999    0.343496    5.688038    0.263581
  26 N   7.0000    0    14.007    4.379821    4.337997    0.554018
  27 C   6.0000    0    12.011    6.137023    2.372072    0.420869
  28 C   6.0000    0    12.011    8.628063    2.672671    1.172071
  29 C   6.0000    0    12.011   10.331724    0.705997    0.905318
  30 C   6.0000    0    12.011    9.520403   -1.563040   -0.121074
  31 C   6.0000    0    12.011    7.031865   -1.911418   -0.864595
  32 C   6.0000    0    12.011    5.334017    0.061674   -0.585033
  33 O   8.0000    0    15.999    2.906595   -0.243309   -1.386460
  34 H   1.0000    0     1.008    6.395114   -3.670820   -1.666536
  35 Cl 17.0000    0    35.453   11.641457   -4.017139   -0.470818
  36 H   1.0000    0     1.008   12.273540    0.932020    1.475290
  37 H   1.0000    0     1.008    9.240493    4.458709    1.944988
  38 H   1.0000    0     1.008    4.977821    6.124613    0.887816
  39 H   1.0000    0     1.008    0.827172    0.392541    1.850955

      -----------------------------------------------------------      
     |                   =====================                   |     
     |                           x T B                           |     
     |                   =====================                   |     
     |                         S. Grimme                         |     
     |          Mulliken Center for Theoretical Chemistry        |     
     |                    University of Bonn                     |     
      -----------------------------------------------------------      

   * xtb version 6.7.1 (edcfbbe) compiled by 'conda@afd1a870197c' on 2025-04-11

   xtb is free software: you can redistribute it and/or modify it under
   the terms of the GNU Lesser General Public License as published by
   the Free Software Foundation, either version 3 of the License, or
   (at your option) any later version.
   
   xtb is distributed in the hope that it will be useful,
   but WITHOUT ANY WARRANTY; without even the implied warranty of
   MERCHANTABILITY or FITNESS FOR A PARTICULAR PURPOSE.  See the
   GNU Lesser General Public License for more details.
   
   Cite this work as:
   * C. Bannwarth, E. Caldeweyher, S. Ehlert, A. Hansen, P. Pracht,
     J. Seibert, S. Spicher, S. Grimme, WIREs Comput. Mol. Sci., 2020, 11,
     e01493. DOI: 10.1002/wcms.1493
   
   for GFN2-xTB:
   * C. Bannwarth, S. Ehlert and S. Grimme., J. Chem. Theory Comput., 2019,
     15, 1652-1671. DOI: 10.1021/acs.jctc.8b01176
   for GFN1-xTB:
   * S. Grimme, C. Bannwarth, P. Shushkov, J. Chem. Theory Comput., 2017,
     13, 1989-2009. DOI: 10.1021/acs.jctc.7b00118
   for GFN0-xTB:
   * P. Pracht, E. Caldeweyher, S. Ehlert, S. Grimme, ChemRxiv, 2019, preprint.
     DOI: 10.26434/chemrxiv.8326202.v1
   for GFN-FF:
   * S. Spicher and S. Grimme, Angew. Chem. Int. Ed., 2020, 59, 15665-15673.
     DOI: 10.1002/anie.202004239
   
   for ALPB and GBSA implicit solvation:
   * S. Ehlert, M. Stahn, S. Spicher, S. Grimme, J. Chem. Theory Comput.,
     2021, 17, 4250-4261. DOI: 10.1021/acs.jctc.1c00471
   
   for ddCOSMO and CPCM-X implicit solvation:
   * M. Stahn, S. Ehlert, S. Grimme, J. Phys. Chem. A,
     2023, XX, XXXX-XXXX. DOI: 10.1021/acs.jpca.3c04382
   
   for DFT-D4:
   * E. Caldeweyher, C. Bannwarth and S. Grimme, J. Chem. Phys., 2017,
     147, 034112. DOI: 10.1063/1.4993215
   * E. Caldeweyher, S. Ehlert, A. Hansen, H. Neugebauer, S. Spicher,
     C. Bannwarth and S. Grimme, J. Chem. Phys., 2019, 150, 154122.
     DOI: 10.1063/1.5090222
   * E. Caldeweyher, J.-M. Mewes, S. Ehlert and S. Grimme, Phys. Chem. Chem. Phys.
     2020, 22, 8499-8512. DOI: 10.1039/D0CP00502A
   
   for sTDA-xTB:
   * S. Grimme and C. Bannwarth, J. Chem. Phys., 2016, 145, 054103.
     DOI: 10.1063/1.4959605
   
   in the mass-spec context:
   * V. Asgeirsson, C. Bauer and S. Grimme, Chem. Sci., 2017, 8, 4879.
     DOI: 10.1039/c7sc00601b
   * J. Koopman and S. Grimme, ACS Omega 2019, 4, 12, 15120-15133.
     DOI: 10.1021/acsomega.9b02011
   
   for metadynamics refer to:
   * S. Grimme, J. Chem. Theory Comput., 2019, 155, 2847-2862
     DOI: 10.1021/acs.jctc.9b00143
   
   for SPH calculations refer to:
   * S. Spicher and S. Grimme, J. Chem. Theory Comput., 2021, 17, 1701-1714
     DOI: 10.1021/acs.jctc.0c01306
   
   for ONIOM refer to:
   * C. Plett, A. Katbashev, S. Ehlert, S. Grimme, M. Bursch,
     Phys. Chem. Chem. Phys., 2023, 25, 17860-17868. DOI: 10.1039/D3CP02178E
   
   for DIPRO refer to:
   * J. Kohn, N. Gildemeister, S. Grimme, D. Fazzi, A. Hansen,
     J. Chem. Phys., 2023, just accepted.
   
   for PTB refer to:
   * S. Grimme, M. Mueller, A. Hansen, J. Chem. Phys., 2023, 158, 124111.
     DOI: 10.1063/5.0137838
   
   with help from (in alphabetical order)
   P. Atkinson, C. Bannwarth, F. Bohle, G. Brandenburg, E. Caldeweyher
   M. Checinski, S. Dohm, S. Ehlert, S. Ehrlich, I. Gerasimov, C. Hölzer
   A. Katbashev, J. Kohn, J. Koopman, C. Lavigne, S. Lehtola, F. März, M. Müller,
   F. Musil, H. Neugebauer, J. Pisarek, C. Plett, P. Pracht, F. Pultar,
   J. Seibert, P. Shushkov, S. Spicher, M. Stahn, M. Steiner, T. Strunk,
   J. Stückrath, T. Rose, and J. Unsleber
   
 * started run on 2025/06/24 at 19:32:58.237     
   ID    Z sym.   atoms
    1    8 O      1, 3, 6, 9, 12, 18, 26, 34
    2    6 C      2, 4, 5, 8, 11, 17, 24, 25, 28-33
    3    1 H      7, 10, 13-16, 19-23, 35, 37-40
    4    7 N      27
    5   17 Cl     36

           -------------------------------------------------
          |                Calculation Setup                |
           -------------------------------------------------

          program call               : /scratch/aweiland/job_40605331/orca_xtb_wrapper/xtb xtb_test2_XTB.xyz --grad -c 0 -u 0 -P 1 --namespace xtb_test2 --input xtb_test2_XTB.input.tmp --acc 0.100000
          hostname                   : exp-2-27
          calculation namespace      : xtb_test2
          coordinate file            : xtb_test2_XTB.xyz
          omp threads                :                     1


           -------------------------------------------------
          |                 G F N 2 - x T B                 |
           -------------------------------------------------

        Reference                      10.1021/acs.jctc.8b01176
      * Hamiltonian:
        H0-scaling (s, p, d)           1.850000    2.230000    2.230000
        zeta-weighting                 0.500000
      * Dispersion:
        s8                             2.700000
        a1                             0.520000
        a2                             5.000000
        s9                             5.000000
      * Repulsion:
        kExp                           1.500000    1.000000
        rExp                           1.000000
      * Coulomb:
        alpha                          2.000000
        third order                    shell-resolved
        anisotropic                    true
        a3                             3.000000
        a5                             4.000000
        cn-shift                       1.200000
        cn-exp                         4.000000
        max-rad                        5.000000

q/qsh data taken from xtbrestart
CAMM data taken from xtbrestart

          ...................................................
          :                      SETUP                      :
          :.................................................:
          :  # basis functions                 118          :
          :  # atomic orbitals                 117          :
          :  # shells                           65          :
          :  # electrons                       132          :
          :  max. iterations                   250          :
          :  Hamiltonian                  GFN2-xTB          :
          :  restarted?                       true          :
          :  GBSA solvation                  false          :
          :  PC potential                    false          :
          :  electronic temp.          300.0000000     K    :
          :  accuracy                    0.1000000          :
          :  -> integral cutoff          0.3500000E+02      :
          :  -> integral neglect         0.1000000E-08      :
          :  -> SCF convergence          0.1000000E-06 Eh   :
          :  -> wf. convergence          0.1000000E-04 e    :
          :  Broyden damping             0.4000000          :
          :  net charge                          0          :
          :  unpaired electrons                  0          :
          ...................................................

 iter      E             dE          RMSdq      gap      omega  full diag
   1    -78.8718141 -0.788718E+02  0.125E-01    3.34       0.0  T
   2    -78.8718408 -0.266829E-04  0.759E-02    3.33       1.0  T
   3    -78.8718400  0.806529E-06  0.156E-02    3.33       1.0  T
   4    -78.8718428 -0.283467E-05  0.465E-03    3.33       3.4  T
   5    -78.8718432 -0.341684E-06  0.263E-03    3.33       6.0  T
   6    -78.8718432 -0.674195E-07  0.160E-03    3.33       9.9  T
   7    -78.8718433 -0.206499E-07  0.111E-03    3.33      14.2  T
   8    -78.8718433 -0.176322E-07  0.755E-04    3.33      20.9  T
   9    -78.8718433 -0.953308E-08  0.386E-04    3.33      40.9  T
[...]


-----------
IR SPECTRUM
-----------

 Mode   freq       eps      Int      T**2         TX        TY        TZ
       cm**-1   L/(mol*cm) km/mol    a.u.
----------------------------------------------------------------------------
  6:     13.20   0.000425    2.15  0.010048  (-0.047997  0.083126  0.028878)
  7:     21.19   0.000146    0.74  0.002144  ( 0.012234 -0.042747  0.012937)
  8:     39.14   0.000242    1.22  0.001931  ( 0.029516  0.002623  0.032448)
  9:     57.00   0.000380    1.92  0.002079  (-0.008952  0.029738 -0.033388)
 10:     69.08   0.000117    0.59  0.000528  ( 0.018884  0.008082  0.010294)
 11:     89.79   0.000380    1.92  0.001322  (-0.034864 -0.000457  0.010298)
 12:     99.84   0.000377    1.91  0.001179  ( 0.029616  0.008301 -0.015273)
 13:    115.02   0.000227    1.15  0.000615  (-0.019020  0.006845 -0.014379)
 14:    131.59   0.000401    2.03  0.000951  (-0.009064  0.009989 -0.027724)
 15:    156.59   0.000124    0.63  0.000248  ( 0.009029 -0.012137  0.004374)
 16:    163.25   0.000008    0.04  0.000016  (-0.000206  0.002033  0.003428)
 17:    196.50   0.000041    0.21  0.000066  (-0.003275 -0.003124  0.006715)
 18:    199.10   0.002196   11.10  0.003441  ( 0.053218  0.023209  0.008406)
 19:    219.09   0.004982   25.17  0.007096  (-0.070222  0.007207 -0.045962)
 20:    236.90   0.017241   87.13  0.022712  (-0.107746 -0.051417 -0.091973)
 21:    238.57   0.007104   35.90  0.009293  ( 0.042552  0.043152  0.074965)
 22:    242.54   0.002295   11.60  0.002953  ( 0.021498 -0.041335  0.027970)
 23:    275.74   0.005123   25.89  0.005798  ( 0.050546  0.019000  0.053687)
 24:    285.84   0.001041    5.26  0.001137  ( 0.015585 -0.017283  0.024401)
 25:    302.34   0.001570    7.94  0.001621  (-0.035038  0.019832  0.000124)
 26:    335.05   0.000707    3.58  0.000659  (-0.002619  0.018237 -0.017873)
 27:    347.58   0.001326    6.70  0.001190  ( 0.027517  0.010905  0.017725)
 28:    363.16   0.004126   20.85  0.003546  (-0.048975 -0.009221 -0.032588)
 29:    370.14   0.011715   59.20  0.009877  (-0.070478 -0.019774 -0.067224)
 30:    383.27   0.006270   31.68  0.005105  (-0.027811  0.064595 -0.012600)
 31:    394.91   0.002835   14.33  0.002240  ( 0.013271 -0.032582 -0.031660)
 32:    408.41   0.006391   32.30  0.004883  ( 0.047175 -0.036526 -0.036382)
 33:    420.40   0.011102   56.10  0.008241  ( 0.011863  0.081582 -0.038005)
 34:    425.30   0.002348   11.86  0.001723  ( 0.011275  0.031152 -0.025001)
 35:    436.81   0.031354  158.45  0.022400  ( 0.066593  0.018914 -0.132693)
 36:    445.74   0.035905  181.45  0.025137  (-0.098055 -0.048587  0.114725)
 37:    478.67   0.003898   19.70  0.002541  ( 0.042275  0.016079 -0.022262)
 38:    506.22   0.004211   21.28  0.002596  (-0.025452  0.029566 -0.032766)
 39:    515.32   0.000563    2.85  0.000341  ( 0.012601 -0.011029 -0.007788)
 40:    532.46   0.000593    3.00  0.000347  ( 0.001734  0.005415  0.017751)
 41:    555.92   0.000173    0.87  0.000097  ( 0.004707  0.001031 -0.008595)
 42:    562.24   0.001008    5.10  0.000560  (-0.002616  0.011525  0.020495)
 43:    573.05   0.003121   15.77  0.001699  ( 0.000851  0.010283  0.039913)
 44:    590.99   0.003570   18.04  0.001885  ( 0.035434  0.003915  0.024782)
 45:    617.58   0.025740  130.08  0.013006  (-0.070001  0.065666 -0.061596)
 46:    654.02   0.000148    0.75  0.000071  ( 0.003030  0.007680  0.001624)
 47:    673.17   0.001589    8.03  0.000737  ( 0.026175  0.000048  0.007185)
 48:    698.62   0.007115   35.95  0.003178  ( 0.045511 -0.009957  0.031743)
 49:    747.87   0.001625    8.21  0.000678  (-0.013106 -0.006906  0.021411)
 50:    784.36   0.002938   14.85  0.001169  ( 0.025760 -0.003966 -0.022131)
 51:    817.47   0.008406   42.48  0.003209  ( 0.026041 -0.018586  0.046747)
 52:    826.54   0.002296   11.60  0.000867  (-0.029432  0.000596  0.000489)
 53:    828.20   0.001871    9.46  0.000705  (-0.004131 -0.004155 -0.025897)
 54:    860.59   0.000796    4.02  0.000289  ( 0.012498 -0.011081 -0.003115)
 55:    887.54   0.007186   36.32  0.002527  ( 0.035581 -0.018833 -0.030101)
 56:    896.12   0.000909    4.59  0.000316  (-0.008008 -0.007253  0.014134)
 57:    922.59   0.006113   30.89  0.002068  (-0.031095  0.029276  0.015606)
 58:    950.14   0.000708    3.58  0.000233  ( 0.001383 -0.001062  0.015150)
 59:    979.76   0.004912   24.82  0.001565  (-0.029997  0.024032 -0.009341)
 60:   1000.38   0.010165   51.37  0.003171  ( 0.036713 -0.007108  0.042101)
 61:   1016.41   0.030503  154.15  0.009365  ( 0.095962 -0.012299  0.002313)
 62:   1030.72   0.021538  108.84  0.006521  (-0.067999  0.002397 -0.043488)
 63:   1045.61   0.007986   40.36  0.002383  (-0.018662  0.020241  0.040315)
 64:   1067.20   0.019558   98.84  0.005719  ( 0.022908 -0.072071 -0.000036)
 65:   1072.75   0.020931  105.77  0.006089  ( 0.064746  0.043536 -0.001149)
 66:   1085.44   0.008045   40.66  0.002313  ( 0.026871 -0.032514 -0.023102)
 67:   1097.08   0.010909   55.13  0.003103  ( 0.050584 -0.010600  0.020781)
 68:   1106.44   0.016485   83.31  0.004650  ( 0.045630  0.050123  0.007421)
 69:   1119.39   0.018154   91.74  0.005061  ( 0.030744  0.015607  0.062228)
 70:   1121.43   0.019178   96.92  0.005337  ( 0.007188 -0.070095 -0.019278)
 71:   1135.31   0.027604  139.50  0.007588  ( 0.003097  0.086238 -0.011878)
 72:   1137.27   0.001542    7.79  0.000423  ( 0.018573 -0.003676 -0.008036)
 73:   1150.36   0.008941   45.18  0.002425  (-0.048670  0.001395  0.007400)
 74:   1170.72   0.017985   90.89  0.004794  ( 0.066808 -0.012583 -0.013123)
 75:   1174.57   0.001121    5.66  0.000298  ( 0.010177 -0.000360  0.013930)
 76:   1202.71   0.008301   41.95  0.002154  (-0.012222  0.028112  0.034844)
 77:   1211.41   0.006568   33.19  0.001692  ( 0.040012 -0.006114  0.007311)
 78:   1215.53   0.001630    8.24  0.000419  (-0.012218 -0.002384  0.016236)
 79:   1225.87   0.010872   54.94  0.002768  (-0.049603  0.006409  0.016314)
 80:   1230.65   0.003138   15.86  0.000796  (-0.024866 -0.013027  0.002783)
 81:   1233.39   0.002282   11.53  0.000577  (-0.000400  0.023900 -0.002450)
 82:   1245.44   0.002768   13.99  0.000694  ( 0.003423  0.025862  0.003600)
 83:   1249.25   0.013198   66.70  0.003297  ( 0.020485  0.050751 -0.017365)
 84:   1271.04   0.016270   82.22  0.003995  ( 0.058231 -0.017034 -0.017709)
 85:   1277.95   0.003768   19.04  0.000920  (-0.028810  0.005532 -0.007711)
 86:   1289.85   0.011002   55.60  0.002662  ( 0.044470 -0.007584  0.025033)
 87:   1294.79   0.005218   26.37  0.001258  (-0.019625  0.028236  0.008665)
 88:   1302.45   0.003451   17.44  0.000827  (-0.003139 -0.007301 -0.027634)
 89:   1310.92   0.006164   31.15  0.001467  (-0.010750  0.028342  0.023421)
 90:   1314.82   0.001000    5.05  0.000237  (-0.008799 -0.001952  0.012494)
 91:   1326.96   0.010234   51.72  0.002407  (-0.031922  0.019623  0.031665)
 92:   1336.31   0.009546   48.24  0.002229  ( 0.016271  0.040077 -0.018933)
 93:   1338.30   0.000085    0.43  0.000020  ( 0.000399 -0.002419 -0.003723)
 94:   1348.82   0.002055   10.39  0.000476  (-0.007985  0.014331 -0.014365)
 95:   1360.27   0.003035   15.34  0.000696  ( 0.005918  0.025646 -0.001860)
 96:   1368.19   0.002846   14.38  0.000649  (-0.014866  0.018587 -0.009089)
 97:   1373.95   0.013279   67.10  0.003016  (-0.040656  0.015766  0.033384)
 98:   1424.54   0.003601   18.20  0.000789  (-0.002378 -0.027911 -0.002023)
 99:   1450.52   0.001438    7.27  0.000309  (-0.002486 -0.005443  0.016542)
100:   1479.13   0.060486  305.67  0.012761  ( 0.055318 -0.066920 -0.072269)
101:   1574.25   0.002120   10.71  0.000420  ( 0.006784  0.018631 -0.005210)
102:   1584.77   0.005397   27.27  0.001063  (-0.025586  0.003685  0.019861)
103:   1777.09   0.209267  1057.55  0.036748  ( 0.050679 -0.146900 -0.112250)
104:   2839.78   0.010572   53.43  0.001162  ( 0.018198  0.017339 -0.023021)
105:   2857.33   0.001121    5.66  0.000122  ( 0.005642 -0.007164  0.006266)
106:   2870.07   0.018717   94.59  0.002035  ( 0.021516  0.003062 -0.039533)
107:   2888.02   0.010007   50.57  0.001081  (-0.027815  0.014564 -0.009776)
108:   2895.11   0.007207   36.42  0.000777  ( 0.008523 -0.001623 -0.026487)
109:   2913.76   0.008498   42.94  0.000910  (-0.006727 -0.004303  0.029092)
110:   2935.40   0.000577    2.92  0.000061  (-0.007530 -0.000920 -0.001954)
111:   2941.20   0.009456   47.79  0.001003  (-0.003391 -0.029459 -0.011135)
112:   3091.44   0.005623   28.42  0.000568  (-0.009660 -0.021763  0.000834)
113:   3115.39   0.003719   18.79  0.000373  (-0.011202  0.012944  0.008915)
114:   3132.61   0.000967    4.89  0.000096  (-0.006204  0.006294  0.004265)
115:   3394.60   0.004626   23.38  0.000425  ( 0.013978  0.015111  0.001237)
116:   3513.16   0.005028   25.41  0.000447  (-0.014061  0.012046 -0.010186)
117:   3525.49   0.007662   38.72  0.000678  (-0.021389 -0.012732 -0.007657)
118:   3536.32   0.005402   27.30  0.000477  (-0.005625  0.016972  0.012530)
119:   3547.09   0.001357    6.86  0.000119  ( 0.002416  0.008720 -0.006125)

* The epsilon (eps) is given for a Dirac delta lineshape.
** The dipole moment derivative (T) already includes vibrational overlap.

The first frequency considered to be a vibration is 6
The total number of vibrations considered is 114


--------------------------
THERMOCHEMISTRY AT 298.15K
--------------------------

Temperature         ... 298.15 K
Pressure            ... 1.00 atm
Total Mass          ... 361.73 AMU

Throughout the following assumptions are being made:
  (1) The electronic state is orbitally nondegenerate
  (2) There are no thermally accessible electronically excited states
  (3) Hindered rotations indicated by low frequency modes are not
      treated as such but are treated as vibrations and this may
      cause some error
  (4) All equations used are the standard statistical mechanics
      equations for an ideal gas
  (5) All vibrations are strictly harmonic

freq.      13.20  E(vib)   ...       0.57 
freq.      21.19  E(vib)   ...       0.56 
freq.      39.14  E(vib)   ...       0.54 
freq.      57.00  E(vib)   ...       0.51 
freq.      69.08  E(vib)   ...       0.50 
freq.      89.79  E(vib)   ...       0.47 
freq.      99.84  E(vib)   ...       0.46 
freq.     115.02  E(vib)   ...       0.44 
freq.     131.59  E(vib)   ...       0.42 
freq.     156.59  E(vib)   ...       0.40 
freq.     163.25  E(vib)   ...       0.39 
freq.     196.50  E(vib)   ...       0.36 
freq.     199.10  E(vib)   ...       0.35 
freq.     219.09  E(vib)   ...       0.33 
freq.     236.90  E(vib)   ...       0.32 
freq.     238.57  E(vib)   ...       0.32 
freq.     242.54  E(vib)   ...       0.31 
freq.     275.74  E(vib)   ...       0.28 
freq.     285.84  E(vib)   ...       0.27 
freq.     302.34  E(vib)   ...       0.26 
freq.     335.05  E(vib)   ...       0.24 
freq.     347.58  E(vib)   ...       0.23 
freq.     363.16  E(vib)   ...       0.22 
freq.     370.14  E(vib)   ...       0.21 
freq.     383.27  E(vib)   ...       0.20 
freq.     394.91  E(vib)   ...       0.20 
freq.     408.41  E(vib)   ...       0.19 
freq.     420.40  E(vib)   ...       0.18 
freq.     425.30  E(vib)   ...       0.18 
freq.     436.81  E(vib)   ...       0.17 
freq.     445.74  E(vib)   ...       0.17 
freq.     478.67  E(vib)   ...       0.15 
freq.     506.22  E(vib)   ...       0.14 
freq.     515.32  E(vib)   ...       0.13 
freq.     532.46  E(vib)   ...       0.13 
freq.     555.92  E(vib)   ...       0.12 
freq.     562.24  E(vib)   ...       0.11 
freq.     573.05  E(vib)   ...       0.11 
freq.     590.99  E(vib)   ...       0.10 
freq.     617.58  E(vib)   ...       0.09 
freq.     654.02  E(vib)   ...       0.08 
freq.     673.17  E(vib)   ...       0.08 
freq.     698.62  E(vib)   ...       0.07 
freq.     747.87  E(vib)   ...       0.06 
freq.     784.36  E(vib)   ...       0.05 
freq.     817.47  E(vib)   ...       0.05 
freq.     826.54  E(vib)   ...       0.04 
freq.     828.20  E(vib)   ...       0.04 
freq.     860.59  E(vib)   ...       0.04 
freq.     887.54  E(vib)   ...       0.04 
freq.     896.12  E(vib)   ...       0.03 
freq.     922.59  E(vib)   ...       0.03 
freq.     950.14  E(vib)   ...       0.03 
freq.     979.76  E(vib)   ...       0.02 
freq.    1000.38  E(vib)   ...       0.02 
freq.    1016.41  E(vib)   ...       0.02 
freq.    1030.72  E(vib)   ...       0.02 
freq.    1045.61  E(vib)   ...       0.02 
freq.    1067.20  E(vib)   ...       0.02 
freq.    1072.75  E(vib)   ...       0.02 
freq.    1085.44  E(vib)   ...       0.02 
freq.    1097.08  E(vib)   ...       0.02 
freq.    1106.44  E(vib)   ...       0.02 
freq.    1119.39  E(vib)   ...       0.01 
freq.    1121.43  E(vib)   ...       0.01 
freq.    1135.31  E(vib)   ...       0.01 
freq.    1137.27  E(vib)   ...       0.01 
freq.    1150.36  E(vib)   ...       0.01 
freq.    1170.72  E(vib)   ...       0.01 
freq.    1174.57  E(vib)   ...       0.01 
freq.    1202.71  E(vib)   ...       0.01 
freq.    1211.41  E(vib)   ...       0.01 
freq.    1215.53  E(vib)   ...       0.01 
freq.    1225.87  E(vib)   ...       0.01 
freq.    1230.65  E(vib)   ...       0.01 
freq.    1233.39  E(vib)   ...       0.01 
freq.    1245.44  E(vib)   ...       0.01 
freq.    1249.25  E(vib)   ...       0.01 
freq.    1271.04  E(vib)   ...       0.01 
freq.    1277.95  E(vib)   ...       0.01 
freq.    1289.85  E(vib)   ...       0.01 
freq.    1294.79  E(vib)   ...       0.01 
freq.    1302.45  E(vib)   ...       0.01 
freq.    1310.92  E(vib)   ...       0.01 
freq.    1314.82  E(vib)   ...       0.01 
freq.    1326.96  E(vib)   ...       0.01 
freq.    1336.31  E(vib)   ...       0.01 
freq.    1338.30  E(vib)   ...       0.01 
freq.    1348.82  E(vib)   ...       0.01 
freq.    1360.27  E(vib)   ...       0.01 
freq.    1368.19  E(vib)   ...       0.01 
freq.    1373.95  E(vib)   ...       0.01 
freq.    1424.54  E(vib)   ...       0.00 
freq.    1450.52  E(vib)   ...       0.00 
freq.    1479.13  E(vib)   ...       0.00 
freq.    1574.25  E(vib)   ...       0.00 
freq.    1584.77  E(vib)   ...       0.00 
freq.    1777.09  E(vib)   ...       0.00 
freq.    2839.78  E(vib)   ...       0.00 
freq.    2857.33  E(vib)   ...       0.00 
freq.    2870.07  E(vib)   ...       0.00 
freq.    2888.02  E(vib)   ...       0.00 
freq.    2895.11  E(vib)   ...       0.00 
freq.    2913.76  E(vib)   ...       0.00 
freq.    2935.40  E(vib)   ...       0.00 
freq.    2941.20  E(vib)   ...       0.00 
freq.    3091.44  E(vib)   ...       0.00 
freq.    3115.39  E(vib)   ...       0.00 
freq.    3132.61  E(vib)   ...       0.00 
freq.    3394.60  E(vib)   ...       0.00 
freq.    3513.16  E(vib)   ...       0.00 
freq.    3525.49  E(vib)   ...       0.00 
freq.    3536.32  E(vib)   ...       0.00 
freq.    3547.09  E(vib)   ...       0.00 

------------
INNER ENERGY
------------

The inner energy is: U= E(el) + E(ZPE) + E(vib) + E(rot) + E(trans)
    E(el)   - is the total energy from the electronic structure calculation
              = E(kin-el) + E(nuc-el) + E(el-el) + E(nuc-nuc)
    E(ZPE)  - the the zero temperature vibrational energy from the frequency calculation
    E(vib)  - the the finite temperature correction to E(ZPE) due to population
              of excited vibrational states
    E(rot)  - is the rotational thermal energy
    E(trans)- is the translational thermal energy

Summary of contributions to the inner energy U:
Electronic energy                ...    -78.17908327 Eh
Zero point energy                ...      0.29408749 Eh     184.54 kcal/mol
Thermal vibrational correction   ...      0.01987919 Eh      12.47 kcal/mol
Thermal rotational correction    ...      0.00141627 Eh       0.89 kcal/mol
Thermal translational correction ...      0.00141627 Eh       0.89 kcal/mol
-----------------------------------------------------------------------
Total thermal energy                    -77.86228404 Eh


Summary of corrections to the electronic energy:
(perhaps to be used in another calculation)
Total thermal correction                  0.02271174 Eh      14.25 kcal/mol
Non-thermal (ZPE) correction              0.29408749 Eh     184.54 kcal/mol
-----------------------------------------------------------------------
Total correction                          0.31679923 Eh     198.79 kcal/mol


--------
ENTHALPY
--------

The enthalpy is H = U + kB*T
                kB is Boltzmann's constant
Total free energy                 ...    -77.86228404 Eh 
Thermal Enthalpy correction       ...      0.00094421 Eh       0.59 kcal/mol
-----------------------------------------------------------------------
Total Enthalpy                    ...    -77.86133984 Eh


Note: Only C1 symmetry has been detected, increase convergence thresholds 
      if your molecule has a higher symmetry. Symmetry factor of 1.0 is   
      used for the rotational entropy correction. 
 

Note: Rotational entropy computed according to Herzberg 
Infrared and Raman Spectra, Chapter V,1, Van Nostrand Reinhold, 1945 
Point Group:  C1, Symmetry Number:   1  
Rotational constants in cm-1:     0.009657     0.005500     0.004074 

Vibrational entropy computed according to the QRRHO of S. Grimme
Chem.Eur.J. 2012 18 9955


-------
ENTROPY
-------

The entropy contributions are T*S = T*(S(el)+S(vib)+S(rot)+S(trans))
     S(el)   - electronic entropy
     S(vib)  - vibrational entropy
     S(rot)  - rotational entropy
     S(trans)- translational entropy
The entropies will be listed as multiplied by the temperature to get
units of energy

Electronic entropy                ...      0.00000000 Eh      0.00 kcal/mol
Vibrational entropy               ...      0.03520434 Eh     22.09 kcal/mol
Rotational entropy                ...      0.01675566 Eh     10.51 kcal/mol
Translational entropy             ...      0.02069220 Eh     12.98 kcal/mol
-----------------------------------------------------------------------
Final entropy term                ...      0.07265220 Eh     45.59 kcal/mol

In case the symmetry of your molecule has not been determined correctly
or in case you have a reason to use a different symmetry number we print 
out the resulting rotational entropy values for sn=1,12 :
 --------------------------------------------------------
|  sn= 1 | S(rot)=       0.01675566 Eh     10.51 kcal/mol|
|  sn= 2 | S(rot)=       0.01610120 Eh     10.10 kcal/mol|
|  sn= 3 | S(rot)=       0.01571837 Eh      9.86 kcal/mol|
|  sn= 4 | S(rot)=       0.01544675 Eh      9.69 kcal/mol|
|  sn= 5 | S(rot)=       0.01523606 Eh      9.56 kcal/mol|
|  sn= 6 | S(rot)=       0.01506392 Eh      9.45 kcal/mol|
|  sn= 7 | S(rot)=       0.01491837 Eh      9.36 kcal/mol|
|  sn= 8 | S(rot)=       0.01479229 Eh      9.28 kcal/mol|
|  sn= 9 | S(rot)=       0.01468108 Eh      9.21 kcal/mol|
|  sn=10 | S(rot)=       0.01458160 Eh      9.15 kcal/mol|
|  sn=11 | S(rot)=       0.01449161 Eh      9.09 kcal/mol|
|  sn=12 | S(rot)=       0.01440946 Eh      9.04 kcal/mol|
 --------------------------------------------------------


-------------------
GIBBS FREE ENERGY
-------------------

The Gibbs free energy is G = H - T*S

Total enthalpy                    ...    -77.86133984 Eh 
Total entropy correction          ...     -0.07265220 Eh    -45.59 kcal/mol
-----------------------------------------------------------------------
Final Gibbs free energy         ...    -77.93399204 Eh

For completeness - the Gibbs free energy minus the electronic energy
G-E(el)                           ...      0.24509124 Eh    153.80 kcal/mol



Timings for individual modules:

Sum of individual times         ...      883.576 sec (=  14.726 min)
Geometry relaxation             ...       12.076 sec (=   0.201 min)   1.4 %
Numerical frequency calculation ...      843.702 sec (=  14.062 min)  95.5 %
XTB module                      ...       27.797 sec (=   0.463 min)   3.1 %
                             ****ORCA TERMINATED NORMALLY****
TOTAL RUN TIME: 0 days 0 hours 14 minutes 58 seconds 157 msec
