
                                 *****************
                                 * O   R   C   A *
                                 *****************

                                            #,                                       
                                            ###                                      
                                            ####                                     
                                            #####                                    
                                            ######                                   
                                           ########,                                 
                                     ,,################,,,,,                         
                               ,,#################################,,                 
                          ,,##########################################,,             
                       ,#########################################, ''#####,          
                    ,#############################################,,   '####,        
                  ,##################################################,,,,####,       
                ,###########''''           ''''###############################       
              ,#####''   ,,,,##########,,,,          '''####'''          '####       
            ,##' ,,,,###########################,,,                        '##       
           ' ,,###''''                  '''############,,,                           
         ,,##''                                '''############,,,,        ,,,,,,###''
      ,#''                                            '''#######################'''  
     '                                                          ''''####''''         
             ,#######,   #######,   ,#######,      ##                                
            ,#'     '#,  ##    ##  ,#'     '#,    #''#        ,####,    ,#,          
            ##       ##  ##   ,#'  ##            #'  '#       #'       ,# #          
            ##       ##  #######   ##           ,######,      #####,      #          
            '#,     ,#'  ##    ##  '#,     ,#' ,#      #,     #,   #      #          
             '#######'   ##     ##  '#######'  #'      '#     '####' #    #          



                #########################################################
                #                        -***-                          #
                #          Department of theory and spectroscopy        #
                #                                                       #
                #                      Frank Neese                      #
                #                                                       #
                #     Directorship, Architecture, Infrastructure        #
                #                    SHARK, DRIVERS                     #
                #        Core code/Algorithms in most modules           #
                #                                                       #
                #        Max Planck Institute fuer Kohlenforschung      #
                #                Kaiser Wilhelm Platz 1                 #
                #                 D-45470 Muelheim/Ruhr                 #
                #                      Germany                          #
                #                                                       #
                #                  All rights reserved                  #
                #                        -***-                          #
                #########################################################


                         Program Version 6.1.0  -  RELEASE   -
                                (GIT: $679e74b$)
                          ($2025-06-10 18:02:51 +0200$)


 With contributions from (in alphabetic order):
[Max-Planck-Institut fuer Kohlenforschung]                               
  Daniel Aravena         : Magnetic Suceptibility                        
  Michael Atanasov       : Ab Initio Ligand Field Theory (pilot matlab implementation)
  Alexander A. Auer      : GIAO ZORA, VPT2 properties, NMR spectrum      
  Ute Becker             : All parallelization in ORCA, NUMFREQ, NUMCALC 
  Giovanni Bistoni       : ED, misc. LED, open-shell LED, HFLD           
  Dmytro Bykov           : pre 5.0 version of the SCF Hessian            
  Marcos Casanova-Páez   : Triplet and SCS-CIS(D). UHF-(DLPNO)-IP/EA/STEOM-CCSD. UHF-CVS-IP/STEOM-CCSD   
  Vijay G. Chilkuri      : MRCI spin determinant printing, contributions to CSF-ICE 
  Pauline Colinet        : FMM embedding                                 
  Dipayan Datta          : RHF DLPNO-CCSD density                        
  Achintya Kumar Dutta   : EOM-CC, STEOM-CC                              
  Nicolas Foglia         : Exact transition moments, OPA infrastructure, MCD improvements    
  Dmitry Ganyushin       : Spin-Orbit,Spin-Spin,Magnetic field MRCI      
  Miquel Garcia-Rates    : C-PCM and meta-GGA Hessian, CCSD/C-PCM, Gaussian charge scheme 
  Tiago L. C. Gouveia    : GS-ROHF, GS-ROCIS                             
  Yang Guo               : DLPNO-NEVPT2, F12-NEVPT2, CIM, IAO-localization        
  Andreas Hansen         : Spin unrestricted coupled pair/coupled cluster methods 
  Ingolf Harden          : AUTO-CI MPn and infrastructure                
  Benjamin Helmich-Paris : MC-RPA, TRAH-(SCF,CASSCF), AVAS, COSX integrals, SCF dyn. polar., MC-PDFT, srDFT 
  Lee Huntington         : MR-EOM, pCC                                   
  Robert Izsak           : Overlap fitted RIJCOSX, COSX-SCS-MP3, EOM     
  Riya Kayal             : Wick's Theorem for AUTO-CI, AUTO-CI UHF-CCSDT 
  Emily Kempfer          : AUTO-CI RHF CISDT and CCSDT, approximate NEVPT4
  Christian Kollmar      : KDIIS, OOCD, Brueckner-CCSD(T), CCSD density, CASPT2, CASPT2-K, improved NEVPT2 
  Axel Koslowski         : Symmetry handling                             
  Simone Kossmann        : meta-GGA functionals, TD-DFT gradient, OOMP2, (MP2 Hessian; deprecated post 5.0) 
  Lucas Lang             : DCDCAS, Hyperfine gauge corrections, ICE-SOC+SSC
  Marvin Lechner         : AUTO-CI (C++ implementation), FIC-MRCC        
  Spencer Leger          : CASSCF response                               
  Dagmar Lenk            : GEPOL surface, SMD, ORCA-2-JSON               
  Dimitrios Liakos       : Extrapolation schemes; Compound Job, Property file
  Dimitrios Manganas     : Further ROCIS development; embedding schemes. LFT, Crystal Embedding 
  Dimitrios Pantazis     : SARC Basis sets                               
  Anastasios Papadopoulos: AUTO-CI, single reference methods and gradients 
  Taras Petrenko         : pre 6.0 DFT Hessian and TD-DFT gradient,  ECA, NRVS 
  Petra Pikulova         : Analytic Raman intensities                    
  Peter Pinski           : DLPNO-MP2, DLPNO-MP2 Gradient                 
  Shashank Vittal Rao    : ES-AILFT, MagRelax                            
  Christoph Reimann      : Effective Core Potentials                     
  Marius Retegan         : Local ZFS, SOC                                
  Christoph Riplinger    : Optimizer, TS searches, QM/MM, DLPNO-CCSD(T), (RO)-DLPNO pert. Triples 
  Michael Roemelt        : Original ROCIS implementation, recursive CI coupling coefficients
  Masaaki Saitow         : Open-shell DLPNO-CCSD energy and density      
  Barbara Sandhoefer     : DKH picture change effects                    
  Yorick L. A. Schmerwitz: GMF and freeze-and-release deltaSCF, NEB S-IDPP initial path                    
  Kantharuban Sivalingam : CASSCF convergence/infrastructure, NEVPT2, NEVPT3, NEVPT4(SD), FIC-MRCI and CEPA variants
  Bernardo de Souza      : ESD, SOC TD-DFT                               
  Georgi L. Stoychev     : AutoAux, RI-MP2 NMR, DLPNO-MP2 response, X2C  
  Van Anh Tran           : RI-MP2 g-tensors                              
  Willem Van den Heuvel  : Paramagnetic NMR                              
  Zikuan Wang            : NOTCH, Electric field optimization            
  Frank Wennmohs         : Technical directorship and infrastructure     
  Hang Xu                : AUTO-CI-Response properties                   
                                                                         
[FACCTs GmbH]                                                            
  Markus Bursch, Nicolas Foglia, Miquel Garcia-Rates, Ingolf Harden, Hagen Neugebauer, Anastasios Papadopoulos, 
  Christoph Riplinger, Bernardo de Souza, Georgi L. Stoychev                                                    
                                                                 
  APM, various basis sets, CI-OPT, improved COSX, DLPNO-Multilevel,           
  DOCKER, DRACO, updates on ESD, Fragmentator, GOAT, IRC, LR-CPCM, L-BFGS, MBIS, meta-GGA TD-DFT gradient, ML-optimized integration grids, 
  MM, NACMEs, nearIR, NEB, NEB-TS, NL-DFT gradient (VV10), 2- and 3-layer-ONIOM, interface openCOSMO-RS, QMMM,   
  Crystal-QMMM, RESP, rigid body optimization, SF, symmetry and pop. for TD-DFT, various functionals, SOLVATOR                                   
                                                                         
[Other institutions]                                                     
  V. Asgeirsson          : NEB                                           
  Christoph Bannwarth    : sTDA-DFT, sTD-DFT, PBEh-3c, B97-3c, D3        
  Giovanni Bistoni       : ETS/NOCV, ADLD/ADEX, COVALED                  
  Martin Brehm           : Molecular dynamics                            
  Ronald Cardenas        : ETS/NOCV                                      
  Martina Colucci        : COVALED                                       
  Sebastian Ehlert       : rSCAN, r2SCAN, r2SCAN-3c, D4, dhf basis sets  
  Marvin Friede          : D4 for Fr, Ra, Ac-Lr                          
  Lars Goerigk           : TD-DFT with DH, B97 family of functionals     
  Stefan Grimme          : VdW corrections, initial TS optimization, DFT functionals, gCP, sTDA/sTD-DF 
  Waldemar Hujo          : DFT-NL                                        
  H. Jonsson             : NEB                                           
  Holger Kruse           : gCP                                           
  Marcel Mueller         : wB97X-3c, vDZP basis set                      
  Hagen Neugebauer       : wr2SCAN, Native XTB                           
  Gianluca Regni         : ADLD/ADEX                                     
  Tobias Risthaus        : pre 6.0 range-separated hybrid DFT and stability analysis
  Lukas Wittmann         : regularized MP2, r2SCAN double-hybrids, wr2SCAN        
                                                                         
We gratefully acknowledge several colleagues who have allowed us to      
interface, adapt or use parts of their codes:                            
  Ed Valeev, F. Pavosevic, A. Kumar             : LibInt (2-el integral package), F12 methods 
  Garnet Chan, S. Sharma, J. Yang, R. Olivares  : DMRG                   
  Ulf Ekstrom                                   : XCFun DFT Library      
  Mihaly Kallay                                 : mrcc  (arbitrary order and MRCC methods)
  Frank Weinhold                                : gennbo (NPA and NBO analysis)           
  Simon Mueller                                 : openCOSMO-RS                            
  Christopher J. Cramer and Donald G. Truhlar   : smd solvation model                     
  S Lehtola, MJT Oliveira, MAL Marques          : LibXC Library                           
  Liviu Ungur et al                             : ANISO software                          


 Your calculation uses the libint2 library for the computation of 2-el integrals
 For citations please refer to: http://libint.valeyev.net

 Your ORCA version has been built with support for libXC version: 7.0.0
 For citations please refer to: https://libxc.gitlab.io

 This ORCA versions uses:
   CBLAS   interface :  Fast vector & matrix operations
   LAPACKE interface :  Fast linear algebra routines
   SCALAPACK package :  Parallel linear algebra routines
   Shared memory     :  Shared parallel matrices
   BLAS/LAPACK       :  OpenBLAS 0.3.29  USE64BITINT DYNAMIC_ARCH NO_AFFINITY Zen SINGLE_THREADED
        Core in use  :  Zen
   Copyright (c) 2011-2014, The OpenBLAS Project


  ***********************************
  * Starting time: Wed Jul  9 21:02:43 2025
  * Host name:     login02
  * Process ID:    1709032
  * Working dir.:  /home/aweiland/comparing_theories/DFT/B3LYP/initial_test
  ***********************************

NOTE: MaxCore=2000 MB was set to SCF,MP2,MDCI,CIPSI,MRCI,RASCI and CIS
      => If you want to overwrite this, your respective input block should be placed after the MaxCore statement
Your calculation utilizes the atom-pairwise dispersion correction
with the Becke-Johnson damping scheme (D3BJ)


Warning: RI is on but no J-basis has been assigned. Assigning Def2/J (nothing to worry about!)
================================================================================

----- Orbital basis set information -----
Your calculation utilizes the basis: def2-TZVP
   F. Weigend and R. Ahlrichs, Phys. Chem. Chem. Phys. 7, 3297 (2005).

----- AuxJ basis set information -----
Your calculation utilizes the auxiliary basis: def2/J
   H-Rn: F. Weigend, Phys. Chem. Chem. Phys. 8, 1057 (2006).
   Fr-Lr: K. Eichkorn, F. Weigend, O. Treutler, R. Ahlrichs; Theor. Chem. Acc. 97, 119 (1997).

================================================================================
                                        WARNINGS
                       Please study these warnings very carefully!
================================================================================

WARNING: Old DensityContainer found on disk!
         Will remove this file - 
         If you want to keep old densities, please start your calculation with a different basename. 


WARNING: Geometry Optimization
  ===> : Switching off AutoStart
         For restart on a previous wavefunction, please use MOREAD

================================================================================
                                       INPUT FILE
================================================================================
NAME = B3.inp
|  1> ! B3LYP D3 def2-TZVP OPT FREQ
|  2> 
|  3> %pal
|  4>   nprocs 8
|  5> end
|  6> 
|  7> %maxcore 2000
|  8> 
|  9> * xyz 0 1
| 10> O   -0.6052   0.5922   -0.7685
| 11> C   -1.7506   0.0461   -0.1664
| 12> O   -1.9967   -1.1790   -0.8061
| 13> C   -3.2141   -1.8356   -0.4735
| 14> C   -4.4050   -0.8816   -0.6227
| 15> O   -5.5604   -1.5339   -0.1464
| 16> H   -6.2695   -0.8802   -0.1450
| 17> C   -4.1799   0.4395   0.0845
| 18> O   -5.2839   1.2661   -0.2363
| 19> H   -5.0989   2.1440   0.1163
| 20> C   -2.8775   1.0416   -0.3900
| 21> O   -2.6576   2.2239   0.3354
| 22> H   -1.7941   2.5968   0.0924
| 23> H   -2.9389   1.2370   -1.4688
| 24> H   -4.1260   0.2761   1.1646
| 25> H   -4.5119   -0.6565   -1.6921
| 26> C   -3.1447   -2.5730   0.8504
| 27> O   -2.9643   -1.6622   1.9241
| 28> H   -3.1815   -2.1015   2.7496
| 29> H   -2.3028   -3.2712   0.7995
| 30> H   -4.0737   -3.1361   0.9644
| 31> H   -3.3224   -2.6121   -1.2341
| 32> H   -1.5842   -0.0926   0.9070
| 33> C   0.5561   0.6500   -0.0553
| 34> C   0.9750   2.1257   0.0869
| 35> O   0.1639   3.0227   0.1022
| 36> N   2.3067   2.3143   0.2535
| 37> C   3.2362   1.2668   0.2094
| 38> C   4.5500   1.4182   0.6223
| 39> C   5.4453   0.3665   0.5039
| 40> C   5.0086   -0.8382   -0.0236
| 41> C   3.6943   -1.0134   -0.4278
| 42> C   2.8106   0.0438   -0.3079
| 43> O   1.5334   -0.1022   -0.7528
| 44> H   3.3487   -1.9510   -0.8393
| 45> Cl  6.1203   -2.1560   -0.1745
| 46> H   6.4729   0.4785   0.8174
| 47> H   4.8777   2.3676   1.0274
| 48> H   2.6172   3.2601   0.4242
| 49> H   0.4368   0.2338   0.9560
| 50> *
| 51> 
| 52>                          ****END OF INPUT****
================================================================================

                       *****************************
                       * Geometry Optimization Run *
                       *****************************

Geometry optimization settings:
Update method            Update   .... BFGS
Choice of coordinates    CoordSys .... (2022) Redundant Internals
Initial Hessian          InHess   .... Almloef's Model
Max. no of cycles        MaxIter  .... 120

Convergence Tolerances:
Energy Change            TolE     ....  5.0000e-06 Eh
Max. Gradient            TolMAXG  ....  3.0000e-04 Eh/bohr
RMS Gradient             TolRMSG  ....  1.0000e-04 Eh/bohr
Max. Displacement        TolMAXD  ....  4.0000e-03 bohr
RMS Displacement         TolRMSD  ....  2.0000e-03 bohr
Strict Convergence                .... False

------------------------------------------------------------------------------
                        ORCA OPTIMIZATION COORDINATE SETUP
------------------------------------------------------------------------------

The optimization will be done in redundant internal coordinates (2022)
Making redundant internal coordinates   ...  (2022 redundants) done
Evaluating the initial hessian          ...  (Almloef) done
Evaluating the coordinates              ...  done
Calculating the B-matrix                .... done
Calculating the G-matrix                .... done
The number of degrees of freedom        ....  213

    -----------------------------------------------------------------
                    Redundant Internal Coordinates


    -----------------------------------------------------------------
         Definition                    Initial Value    Approx d2E/dq
    -----------------------------------------------------------------
      1. B(C   1,O   0)                  1.4045         0.530520   
      2. B(O   2,C   1)                  1.4038         0.531937   
      3. B(C   3,O   2)                  1.4226         0.496425   
      4. B(C   4,C   3)                  1.5332         0.369245   
      5. B(O   5,C   4)                  1.4097         0.520494   
      6. B(H   6,O   5)                  0.9644         0.511540   
      7. B(C   7,C   4)                  1.5153         0.394316   
      8. B(O   8,H   6)                  2.3635         0.010000   
      9. B(O   8,C   7)                  1.4160         0.508660   
     10. B(H   9,O   8)                  0.9640         0.512407   
     11. B(C  10,C   7)                  1.5113         0.400192   
     12. B(C  10,C   1)                  1.5202         0.387310   
     13. B(O  11,C  10)                  1.4044         0.530725   
     14. B(H  12,O  11)                  0.9715         0.498519   
     15. B(H  13,C  10)                  1.0981         0.349579   
     16. B(H  14,C   7)                  1.0937         0.355214   
     17. B(H  15,C   4)                  1.0981         0.349607   
     18. B(C  16,C   3)                  1.5170         0.391850   
     19. B(O  17,C  16)                  1.4195         0.502154   
     20. B(H  18,O  17)                  0.9600         0.519946   
     21. B(H  19,C  16)                  1.0949         0.353638   
     22. B(H  20,C  16)                  1.0923         0.357071   
     23. B(H  21,C   3)                  1.0923         0.357026   
     24. B(H  22,C   1)                  1.0950         0.353493   
     25. B(C  23,O   0)                  1.3640         0.615586   
     26. B(C  24,C  23)                  1.5406         0.359333   
     27. B(O  25,C  24)                  1.2094         1.086325   
     28. B(O  25,H  12)                  2.0038         0.011237   
     29. B(N  26,C  24)                  1.3553         0.635753   
     30. B(C  27,N  26)                  1.4011         0.537174   
     31. B(C  28,C  27)                  1.3855         0.635322   
     32. B(C  29,C  28)                  1.3862         0.633493   
     33. B(C  30,C  29)                  1.3857         0.634660   
     34. B(C  31,C  30)                  1.3862         0.633658   
     35. B(C  32,C  31)                  1.3831         0.640829   
     36. B(C  32,C  27)                  1.3944         0.614688   
     37. B(O  33,C  32)                  1.3603         0.624044   
     38. B(O  33,C  23)                  1.4168         0.507060   
     39. B(H  34,C  31)                  1.0807         0.372645   
     40. B(Cl 35,C  30)                  1.7307         0.401056   
     41. B(H  36,C  29)                  1.0802         0.373328   
     42. B(H  37,C  28)                  1.0830         0.369502   
     43. B(H  38,N  26)                  1.0100         0.432719   
     44. B(H  39,C  23)                  1.1001         0.347005   
     45. A(C   1,O   0,C  23)          119.1193         0.416116   
     46. A(O   2,C   1,H  22)          111.2715         0.340760   
     47. A(O   0,C   1,H  22)          110.2147         0.340608   
     48. A(O   0,C   1,O   2)          106.6747         0.405480   
     49. A(O   0,C   1,C  10)          106.6700         0.385992   
     50. A(O   2,C   1,C  10)          111.9943         0.386171   
     51. A(C  10,C   1,H  22)          109.8631         0.325257   
     52. A(C   1,O   2,C   3)          116.5051         0.400757   
     53. A(C   4,C   3,H  21)          107.3108         0.323244   
     54. A(O   2,C   3,C  16)          112.9073         0.382333   
     55. A(C   4,C   3,C  16)          115.0195         0.365603   
     56. A(O   2,C   3,H  21)          104.4862         0.337412   
     57. A(O   2,C   3,C   4)          110.7791         0.378415   
     58. A(C  16,C   3,H  21)          105.4659         0.326415   
     59. A(C   3,C   4,C   7)          112.4384         0.365996   
     60. A(C   7,C   4,H  15)          106.8739         0.325625   
     61. A(C   3,C   4,O   5)          108.4107         0.381533   
     62. A(O   5,C   4,H  15)          110.1280         0.338898   
     63. A(C   3,C   4,H  15)          107.3348         0.322133   
     64. A(O   5,C   4,C   7)          111.5605         0.385915   
     65. A(C   4,O   5,H   6)          106.8259         0.358206   
     66. A(O   8,C   7,C  10)          111.6051         0.385364   
     67. A(C   4,C   7,C  10)          109.1982         0.371088   
     68. A(C  10,C   7,H  14)          109.0939         0.327275   
     69. A(O   8,C   7,H  14)          110.4490         0.338497   
     70. A(C   4,C   7,H  14)          109.7530         0.326479   
     71. A(C   4,C   7,O   8)          106.7021         0.384373   
     72. A(C   7,O   8,H   9)          107.4059         0.356911   
     73. A(C   1,C  10,C   7)          109.3758         0.369945   
     74. A(O  11,C  10,H  13)          111.4937         0.339997   
     75. A(C   7,C  10,H  13)          109.3400         0.326415   
     76. A(C   1,C  10,H  13)          107.6072         0.324663   
     77. A(C   1,C  10,O  11)          111.0539         0.386018   
     78. A(C   7,C  10,O  11)          107.9485         0.388226   
     79. A(C  10,O  11,H  12)          109.4584         0.357822   
     80. A(H  19,C  16,H  20)          109.2736         0.289630   
     81. A(C   3,C  16,O  17)          110.7344         0.383096   
     82. A(C   3,C  16,H  19)          107.7323         0.325903   
     83. A(O  17,C  16,H  20)          111.0955         0.338065   
     84. A(C   3,C  16,H  20)          107.6236         0.326422   
     85. A(O  17,C  16,H  19)          110.2793         0.337521   
     86. A(C  16,O  17,H  18)          109.1507         0.357016   
     87. A(C  24,C  23,O  33)          111.4953         0.378021   
     88. A(O   0,C  23,O  33)          107.9000         0.412785   
     89. A(O   0,C  23,H  39)          111.8576         0.348133   
     90. A(O   0,C  23,C  24)          108.6839         0.390990   
     91. A(O  33,C  23,H  39)          109.0570         0.337004   
     92. A(C  24,C  23,H  39)          107.8807         0.320310   
     93. A(O  25,C  24,N  26)          123.6568         0.476543   
     94. A(C  23,C  24,N  26)          114.3198         0.393202   
     95. A(C  23,C  24,O  25)          121.9546         0.432419   
     96. A(C  24,N  26,C  27)          122.9529         0.419443   
     97. A(C  27,N  26,H  38)          120.0971         0.350058   
     98. A(C  24,N  26,H  38)          116.9475         0.360206   
     99. A(C  28,C  27,C  32)          119.7245         0.435303   
    100. A(N  26,C  27,C  32)          117.7034         0.419653   
    101. A(N  26,C  27,C  28)          122.5479         0.422133   
    102. A(C  27,C  28,C  29)          120.2707         0.437673   
    103. A(C  29,C  28,H  37)          120.1068         0.355750   
    104. A(C  27,C  28,H  37)          119.6183         0.355924   
    105. A(C  28,C  29,C  30)          119.2445         0.437591   
    106. A(C  30,C  29,H  36)          120.0278         0.356484   
    107. A(C  28,C  29,H  36)          120.7277         0.356372   
    108. A(C  29,C  30,Cl 35)          119.5196         0.421457   
    109. A(C  29,C  30,C  31)          121.3108         0.437611   
    110. A(C  31,C  30,Cl 35)          119.1687         0.421339   
    111. A(C  32,C  31,H  34)          119.4622         0.356959   
    112. A(C  30,C  31,H  34)          121.5949         0.356277   
    113. A(C  30,C  31,C  32)          118.9412         0.438375   
    114. A(C  31,C  32,O  33)          119.3072         0.434304   
    115. A(C  27,C  32,O  33)          120.1338         0.431064   
    116. A(C  27,C  32,C  31)          120.5004         0.435980   
    117. A(C  23,O  33,C  32)          115.4446         0.413786   
    118. D(H  22,C   1,O   0,C  23)     11.0210         0.022353   
    119. D(C  10,C   1,O   0,C  23)    130.2448         0.022353   
    120. D(O   2,C   1,O   0,C  23)   -109.9006         0.022353   
    121. D(C   3,O   2,C   1,H  22)     67.4724         0.022478   
    122. D(C   3,O   2,C   1,C  10)    -55.9276         0.022478   
    123. D(C   3,O   2,C   1,O   0)   -172.2832         0.022478   
    124. D(C  16,C   3,O   2,C   1)    -79.1476         0.019474   
    125. D(H  21,C   3,O   2,C   1)    166.7621         0.019474   
    126. D(C   4,C   3,O   2,C   1)     51.5012         0.019474   
    127. D(C   7,C   4,C   3,C  16)     79.5629         0.010902   
    128. D(C   7,C   4,C   3,O   2)    -49.9705         0.010902   
    129. D(O   5,C   4,C   3,H  21)     72.7313         0.010902   
    130. D(O   5,C   4,C   3,C  16)    -44.2504         0.010902   
    131. D(C   7,C   4,C   3,H  21)   -163.4554         0.010902   
    132. D(O   5,C   4,C   3,O   2)   -173.7839         0.010902   
    133. D(H   6,O   5,C   4,H  15)    -69.9090         0.021480   
    134. D(H   6,O   5,C   4,C   7)     48.5951         0.021480   
    135. D(H   6,O   5,C   4,C   3)    172.9328         0.021480   
    136. D(C  10,C   7,C   4,H  15)    -63.7995         0.012350   
    137. D(C  10,C   7,C   4,O   5)    175.7689         0.012350   
    138. D(C  10,C   7,C   4,C   3)     53.7247         0.012350   
    139. D(O   8,C   7,C   4,H  15)     56.9671         0.012350   
    140. D(O   8,C   7,C   4,O   5)    -63.4644         0.012350   
    141. D(O   8,C   7,C   4,C   3)    174.4913         0.012350   
    142. D(H   9,O   8,C   7,H  14)     67.7092         0.022222   
    143. D(H   9,O   8,C   7,C  10)    -53.8357         0.022222   
    144. D(H   9,O   8,C   7,C   4)   -173.0512         0.022222   
    145. D(O  11,C  10,C   1,O   0)    -67.8800         0.011933   
    146. D(C   7,C  10,C   1,H  22)    -67.4672         0.011933   
    147. D(C   7,C  10,C   1,O   2)     56.7224         0.011933   
    148. D(C   7,C  10,C   1,O   0)    173.0808         0.011933   
    149. D(O  11,C  10,C   7,O   8)     65.5702         0.012706   
    150. D(O  11,C  10,C   7,C   4)   -176.7057         0.012706   
    151. D(C   1,C  10,C   7,H  14)     64.1887         0.012706   
    152. D(C   1,C  10,C   7,O   8)   -173.4849         0.012706   
    153. D(C   1,C  10,C   7,C   4)    -55.7608         0.012706   
    154. D(O  11,C  10,C   1,H  22)     51.5720         0.011933   
    155. D(O  11,C  10,C   7,H  14)    -56.7562         0.012706   
    156. D(O  11,C  10,C   1,O   2)    175.7616         0.011933   
    157. D(H  12,O  11,C  10,H  13)    -63.8677         0.022371   
    158. D(H  12,O  11,C  10,C   7)    176.0205         0.022371   
    159. D(H  12,O  11,C  10,C   1)     56.1280         0.022371   
    160. D(H  19,C  16,C   3,H  21)     57.6917         0.012202   
    161. D(H  19,C  16,C   3,C   4)    175.7155         0.012202   
    162. D(H  19,C  16,C   3,O   2)    -55.8043         0.012202   
    163. D(O  17,C  16,C   3,C   4)    -63.6117         0.012202   
    164. D(O  17,C  16,C   3,O   2)     64.8685         0.012202   
    165. D(O  17,C  16,C   3,H  21)    178.3644         0.012202   
    166. D(H  18,O  17,C  16,H  20)     43.7980         0.019940   
    167. D(H  18,O  17,C  16,H  19)    -77.5150         0.019940   
    168. D(H  18,O  17,C  16,C   3)    163.3374         0.019940   
    169. D(H  39,C  23,O   0,C   1)      0.2009         0.030651   
    170. D(O  33,C  23,O   0,C   1)    120.1518         0.030651   
    171. D(C  24,C  23,O   0,C   1)   -118.8033         0.030651   
    172. D(N  26,C  24,C  23,O  33)    -35.0300         0.010000   
    173. D(N  26,C  24,C  23,O   0)   -153.8385         0.010000   
    174. D(O  25,C  24,C  23,H  39)    -92.3950         0.010000   
    175. D(O  25,C  24,C  23,O  33)    147.8840         0.010000   
    176. D(O  25,C  24,C  23,O   0)     29.0754         0.010000   
    177. D(H  38,N  26,C  24,O  25)      1.7466         0.032861   
    178. D(H  38,N  26,C  24,C  23)   -175.2831         0.032861   
    179. D(C  27,N  26,C  24,O  25)   -178.8299         0.032861   
    180. D(C  27,N  26,C  24,C  23)      4.1405         0.032861   
    181. D(C  32,C  27,N  26,H  38)   -166.4606         0.022944   
    182. D(C  32,C  27,N  26,C  24)     14.1333         0.022944   
    183. D(C  28,C  27,N  26,H  38)     11.7456         0.022944   
    184. D(C  28,C  27,N  26,C  24)   -167.6605         0.022944   
    185. D(H  37,C  28,C  27,C  32)   -179.7611         0.028017   
    186. D(H  37,C  28,C  27,N  26)      2.0677         0.028017   
    187. D(C  29,C  28,C  27,C  32)      0.9884         0.028017   
    188. D(C  29,C  28,C  27,N  26)   -177.1827         0.028017   
    189. D(H  36,C  29,C  28,H  37)      0.3450         0.027845   
    190. D(H  36,C  29,C  28,C  27)    179.5918         0.027845   
    191. D(C  30,C  29,C  28,H  37)   -179.6520         0.027845   
    192. D(C  30,C  29,C  28,C  27)     -0.4052         0.027845   
    193. D(Cl 35,C  30,C  29,H  36)      0.0090         0.027954   
    194. D(Cl 35,C  30,C  29,C  28)   -179.9940         0.027954   
    195. D(C  31,C  30,C  29,H  36)    179.6603         0.027954   
    196. D(C  31,C  30,C  29,C  28)     -0.3427         0.027954   
    197. D(H  34,C  31,C  30,Cl 35)     -0.3164         0.027861   
    198. D(H  34,C  31,C  30,C  29)   -179.9689         0.027861   
    199. D(C  32,C  31,C  30,Cl 35)   -179.8562         0.027861   
    200. D(C  32,C  31,C  30,C  29)      0.4913         0.027861   
    201. D(O  33,C  32,C  31,C  30)    177.3229         0.028537   
    202. D(C  27,C  32,C  31,H  34)   -179.4466         0.028537   
    203. D(C  27,C  32,C  31,C  30)      0.1032         0.028537   
    204. D(O  33,C  32,C  27,C  28)   -178.0347         0.026119   
    205. D(O  33,C  32,C  27,N  26)      0.2241         0.026119   
    206. D(C  31,C  32,C  27,C  28)     -0.8380         0.026119   
    207. D(O  33,C  32,C  31,H  34)     -2.2269         0.028537   
    208. D(C  31,C  32,C  27,N  26)    177.4208         0.026119   
    209. D(C  23,O  33,C  32,C  31)    149.5609         0.028599   
    210. D(C  23,O  33,C  32,C  27)    -33.2091         0.028599   
    211. D(C  32,O  33,C  23,H  39)    -69.5281         0.020345   
    212. D(C  32,O  33,C  23,C  24)     49.4949         0.020345   
    213. D(C  32,O  33,C  23,O   0)    168.7701         0.020345   
    -----------------------------------------------------------------

Number of atoms                         .... 40
Number of degrees of freedom            .... 213


         *************************************************************
         *                GEOMETRY OPTIMIZATION CYCLE   1            *
         *************************************************************
---------------------------------
CARTESIAN COORDINATES (ANGSTROEM)
---------------------------------
  O     -0.605200    0.592200   -0.768500
  C     -1.750600    0.046100   -0.166400
  O     -1.996700   -1.179000   -0.806100
  C     -3.214100   -1.835600   -0.473500
  C     -4.405000   -0.881600   -0.622700
  O     -5.560400   -1.533900   -0.146400
  H     -6.269500   -0.880200   -0.145000
  C     -4.179900    0.439500    0.084500
  O     -5.283900    1.266100   -0.236300
  H     -5.098900    2.144000    0.116300
  C     -2.877500    1.041600   -0.390000
  O     -2.657600    2.223900    0.335400
  H     -1.794100    2.596800    0.092400
  H     -2.938900    1.237000   -1.468800
  H     -4.126000    0.276100    1.164600
  H     -4.511900   -0.656500   -1.692100
  C     -3.144700   -2.573000    0.850400
  O     -2.964300   -1.662200    1.924100
  H     -3.181500   -2.101500    2.749600
  H     -2.302800   -3.271200    0.799500
  H     -4.073700   -3.136100    0.964400
  H     -3.322400   -2.612100   -1.234100
  H     -1.584200   -0.092600    0.907000
  C      0.556100    0.650000   -0.055300
  C      0.975000    2.125700    0.086900
  O      0.163900    3.022700    0.102200
  N      2.306700    2.314300    0.253500
  C      3.236200    1.266800    0.209400
  C      4.550000    1.418200    0.622300
  C      5.445300    0.366500    0.503900
  C      5.008600   -0.838200   -0.023600
  C      3.694300   -1.013400   -0.427800
  C      2.810600    0.043800   -0.307900
  O      1.533400   -0.102200   -0.752800
  H      3.348700   -1.951000   -0.839300
  Cl     6.120300   -2.156000   -0.174500
  H      6.472900    0.478500    0.817400
  H      4.877700    2.367600    1.027400
  H      2.617200    3.260100    0.424200
  H      0.436800    0.233800    0.956000

----------------------------
CARTESIAN COORDINATES (A.U.)
----------------------------
  NO LB      ZA    FRAG     MASS         X           Y           Z
   0 O     8.0000    0    15.999   -1.143662    1.119096   -1.452255
   1 C     6.0000    0    12.011   -3.308155    0.087116   -0.314450
   2 O     8.0000    0    15.999   -3.773216   -2.227987   -1.523308
   3 C     6.0000    0    12.011   -6.073769   -3.468781   -0.894785
   4 C     6.0000    0    12.011   -8.324244   -1.665983   -1.176732
   5 O     8.0000    0    15.999  -10.507633   -2.898651   -0.276656
   6 H     1.0000    0     1.008  -11.847638   -1.663337   -0.274010
   7 C     6.0000    0    12.011   -7.898866    0.830535    0.159682
   8 O     8.0000    0    15.999   -9.985124    2.392582   -0.446542
   9 H     1.0000    0     1.008   -9.635525    4.051573    0.219775
  10 C     6.0000    0    12.011   -5.437687    1.968339   -0.736993
  11 O     8.0000    0    15.999   -5.022136    4.202562    0.633814
  12 H     1.0000    0     1.008   -3.390358    4.907241    0.174611
  13 H     1.0000    0     1.008   -5.553716    2.337591   -2.775630
  14 H     1.0000    0     1.008   -7.797010    0.521753    2.200775
  15 H     1.0000    0     1.008   -8.526255   -1.240605   -3.197606
  16 C     6.0000    0    12.011   -5.942622   -4.862265    1.607023
  17 O     8.0000    0    15.999   -5.601715   -3.141103    3.636022
  18 H     1.0000    0     1.008   -6.012164   -3.971259    5.195991
  19 H     1.0000    0     1.008   -4.351661   -6.181672    1.510836
  20 H     1.0000    0     1.008   -7.698177   -5.926370    1.822452
  21 H     1.0000    0     1.008   -6.278426   -4.936154   -2.332111
  22 H     1.0000    0     1.008   -2.993704   -0.174989    1.713982
  23 C     6.0000    0    12.011    1.050877    1.228322   -0.104502
  24 C     6.0000    0    12.011    1.842483    4.016991    0.164217
  25 O     8.0000    0    15.999    0.309726    5.712075    0.193130
  26 N     7.0000    0    14.007    4.359031    4.373393    0.479046
  27 C     6.0000    0    12.011    6.115532    2.393905    0.395709
  28 C     6.0000    0    12.011    8.598254    2.680010    1.175977
  29 C     6.0000    0    12.011   10.290126    0.692585    0.952233
  30 C     6.0000    0    12.011    9.464882   -1.583968   -0.044598
  31 C     6.0000    0    12.011    6.981215   -1.915048   -0.808425
  32 C     6.0000    0    12.011    5.311264    0.082770   -0.581847
  33 O     8.0000    0    15.999    2.897706   -0.193130   -1.422586
  34 H     1.0000    0     1.008    6.328126   -3.686856   -1.586047
  35 Cl   17.0000    0    35.453   11.565691   -4.074250   -0.329757
  36 H     1.0000    0     1.008   12.232008    0.904234    1.544662
  37 H     1.0000    0     1.008    9.217517    4.474116    1.941505
  38 H     1.0000    0     1.008    4.945791    6.160696    0.801622
  39 H     1.0000    0     1.008    0.825432    0.441818    1.806578

--------------------------------
INTERNAL COORDINATES (ANGSTROEM)
--------------------------------
 O      0   0   0     0.000000000000     0.00000000     0.00000000
 C      1   0   0     1.404525108355     0.00000000     0.00000000
 O      2   1   0     1.403798885168   106.67470913     0.00000000
 C      3   2   1     1.422606438900   116.50505733   187.71678885
 C      4   3   2     1.533173000675   110.77912018    51.50122767
 O      5   4   3     1.409718461254   108.41067501   186.21610104
 H      6   5   4     0.964442045952   106.82585079   172.93278465
 C      5   4   3     1.515291080948   112.43840648   310.02945633
 O      8   5   4     1.415978884023   106.70207903   174.49134086
 H      9   8   5     0.963981415796   107.40590151   186.94884405
 C      8   5   4     1.511264510269   109.19818987    53.72467876
 O     11   8   5     1.404419616781   107.94849893   183.29431019
 H     12  11   8     0.971460580775   109.45837893   176.02048783
 H     11   8   5     1.098071290946   109.33998281    61.83681174
 H      8   5   4     1.093718784697   109.75300142   294.18185580
 H      5   4   3     1.098050080825   107.33480374    67.27988377
 C      4   3   2     1.516999119973   112.90728775   280.85241757
 O     17   4   3     1.419483177075   110.73443649    64.86849011
 H     18  17   4     0.960005510401   109.15065987   163.33742186
 H     17   4   3     1.094929066196   107.73234309   304.19572268
 H     17   4   3     1.092299688730   107.62356946   186.47331083
 H      4   3   2     1.092333969077   104.48621080   166.76205745
 H      2   1   3     1.095040734402   110.21471967   120.92165118
 C      1   2   3     1.364042803581   119.11926526   250.09938992
 C     24   1   2     1.540580585364   108.68385838   241.19673474
 O     25  24   1     1.209432222160   121.95462967    29.07544068
 N     25  24   1     1.355267652532   114.31976050   206.16145505
 C     27  25  24     1.401132152939   122.95286734     4.14049766
 C     28  27  25     1.385452565049   122.54794248   192.33948289
 C     29  28  27     1.386237187497   120.27069897   182.81727892
 C     30  29  28     1.385736349383   119.24452985   359.59480931
 C     31  30  29     1.386166357260   121.31081166   359.65729446
 C     32  31  30     1.383102866746   118.94123616     0.49127085
 O     33  32  31     1.360327846513   119.30722491   177.32285646
 H     32  31  30     1.080678199095   121.59493185   180.03107644
 Cl    31  30  29     1.730677480064   119.51957223   180.00599177
 H     30  29  28     1.080179619323   120.72768742   179.59182668
 H     29  28  27     1.082983684088   119.61825871     2.06773930
 H     27  25  24     1.009993257403   116.94749385   184.71693653
 H     24   1   2     1.100083005959   111.85757991     0.20089755

---------------------------
INTERNAL COORDINATES (A.U.)
---------------------------
 O      0   0   0     0.000000000000     0.00000000     0.00000000
 C      1   0   0     2.654167803007     0.00000000     0.00000000
 O      2   1   0     2.652795440072   106.67470913     0.00000000
 C      3   2   1     2.688336565874   116.50505733   187.71678885
 C      4   3   2     2.897277087199   110.77912018    51.50122767
 O      5   4   3     2.663981817703   108.41067501   186.21610104
 H      6   5   4     1.822531338888   106.82585079   172.93278465
 C      5   4   3     2.863485156165   112.43840648   310.02945633
 O      8   5   4     2.675812302220   106.70207903   174.49134086
 H      9   8   5     1.821660874044   107.40590151   186.94884405
 C      8   5   4     2.855876040324   109.19818987    53.72467876
 O     11   8   5     2.653968452823   107.94849893   183.29431019
 H     12  11   8     1.835794447565   109.45837893   176.02048783
 H     11   8   5     2.075054015409   109.33998281    61.83681174
 H      8   5   4     2.066828970603   109.75300142   294.18185580
 H      5   4   3     2.075013934090   107.33480374    67.27988377
 C      4   3   2     2.866712882149   112.90728775   280.85241757
 O     17   4   3     2.682434456381   110.73443649    64.86849011
 H     18  17   4     1.814147501713   109.15065987   163.33742186
 H     17   4   3     2.069116071180   107.73234309   304.19572268
 H     17   4   3     2.064147267867   107.62356946   186.47331083
 H      4   3   2     2.064212048335   104.48621080   166.76205745
 H      2   1   3     2.069327093508   110.21471967   120.92165118
 C      1   2   3     2.577667333713   119.11926526   250.09938992
 C     24   1   2     2.911275393574   108.68385838   241.19673474
 O     25  24   1     2.285495677423   121.95462967    29.07544068
 N     25  24   1     2.561084701448   114.31976050   206.16145505
 C     27  25  24     2.647756046487   122.95286734     4.14049766
 C     28  27  25     2.618125919481   122.54794248   192.33948289
 C     29  28  27     2.619608641027   120.27069897   182.81727892
 C     30  29  28     2.618662194153   119.24452985   359.59480931
 C     31  30  29     2.619474791277   121.31081166   359.65729446
 C     32  31  30     2.613685633191   118.94123616     0.49127085
 O     33  32  31     2.570647082257   119.30722491   177.32285646
 H     32  31  30     2.042185835189   121.59493185   180.03107644
 Cl    31  30  29     3.270506463466   119.51957223   180.00599177
 H     30  29  28     2.041243655963   120.72768742   179.59182668
 H     29  28  27     2.046542570431   119.61825871     2.06773930
 H     27  25  24     1.908610653599   116.94749385   184.71693653
 H     24   1   2     2.078855605844   111.85757991     0.20089755

---------------------
BASIS SET INFORMATION
---------------------
There are 5 groups of distinct atoms

 Group   1 Type O   : 11s6p2d1f contracted to 5s3p2d1f pattern {62111/411/11/1}
 Group   2 Type C   : 11s6p2d1f contracted to 5s3p2d1f pattern {62111/411/11/1}
 Group   3 Type H   : 5s1p contracted to 3s1p pattern {311/1}
 Group   4 Type N   : 11s6p2d1f contracted to 5s3p2d1f pattern {62111/411/11/1}
 Group   5 Type Cl  : 14s9p3d1f contracted to 5s5p2d1f pattern {73211/51111/21/1}

Atom   0O    basis set group =>   1
Atom   1C    basis set group =>   2
Atom   2O    basis set group =>   1
Atom   3C    basis set group =>   2
Atom   4C    basis set group =>   2
Atom   5O    basis set group =>   1
Atom   6H    basis set group =>   3
Atom   7C    basis set group =>   2
Atom   8O    basis set group =>   1
Atom   9H    basis set group =>   3
Atom  10C    basis set group =>   2
Atom  11O    basis set group =>   1
Atom  12H    basis set group =>   3
Atom  13H    basis set group =>   3
Atom  14H    basis set group =>   3
Atom  15H    basis set group =>   3
Atom  16C    basis set group =>   2
Atom  17O    basis set group =>   1
Atom  18H    basis set group =>   3
Atom  19H    basis set group =>   3
Atom  20H    basis set group =>   3
Atom  21H    basis set group =>   3
Atom  22H    basis set group =>   3
Atom  23C    basis set group =>   2
Atom  24C    basis set group =>   2
Atom  25O    basis set group =>   1
Atom  26N    basis set group =>   4
Atom  27C    basis set group =>   2
Atom  28C    basis set group =>   2
Atom  29C    basis set group =>   2
Atom  30C    basis set group =>   2
Atom  31C    basis set group =>   2
Atom  32C    basis set group =>   2
Atom  33O    basis set group =>   1
Atom  34H    basis set group =>   3
Atom  35Cl   basis set group =>   5
Atom  36H    basis set group =>   3
Atom  37H    basis set group =>   3
Atom  38H    basis set group =>   3
Atom  39H    basis set group =>   3
---------------------------------
AUXILIARY/J BASIS SET INFORMATION
---------------------------------
There are 5 groups of distinct atoms

 Group   1 Type O   : 12s5p4d2f1g contracted to 6s4p3d1f1g pattern {711111/2111/211/2/1}
 Group   2 Type C   : 12s5p4d2f1g contracted to 6s4p3d1f1g pattern {711111/2111/211/2/1}
 Group   3 Type H   : 5s2p1d contracted to 3s1p1d pattern {311/2/1}
 Group   4 Type N   : 12s5p4d2f1g contracted to 6s4p3d1f1g pattern {711111/2111/211/2/1}
 Group   5 Type Cl  : 14s5p5d2f1g contracted to 8s4p3d1f1g pattern {71111111/2111/311/2/1}

Atom   0O    basis set group =>   1
Atom   1C    basis set group =>   2
Atom   2O    basis set group =>   1
Atom   3C    basis set group =>   2
Atom   4C    basis set group =>   2
Atom   5O    basis set group =>   1
Atom   6H    basis set group =>   3
Atom   7C    basis set group =>   2
Atom   8O    basis set group =>   1
Atom   9H    basis set group =>   3
Atom  10C    basis set group =>   2
Atom  11O    basis set group =>   1
Atom  12H    basis set group =>   3
Atom  13H    basis set group =>   3
Atom  14H    basis set group =>   3
Atom  15H    basis set group =>   3
Atom  16C    basis set group =>   2
Atom  17O    basis set group =>   1
Atom  18H    basis set group =>   3
Atom  19H    basis set group =>   3
Atom  20H    basis set group =>   3
Atom  21H    basis set group =>   3
Atom  22H    basis set group =>   3
Atom  23C    basis set group =>   2
Atom  24C    basis set group =>   2
Atom  25O    basis set group =>   1
Atom  26N    basis set group =>   4
Atom  27C    basis set group =>   2
Atom  28C    basis set group =>   2
Atom  29C    basis set group =>   2
Atom  30C    basis set group =>   2
Atom  31C    basis set group =>   2
Atom  32C    basis set group =>   2
Atom  33O    basis set group =>   1
Atom  34H    basis set group =>   3
Atom  35Cl   basis set group =>   5
Atom  36H    basis set group =>   3
Atom  37H    basis set group =>   3
Atom  38H    basis set group =>   3
Atom  39H    basis set group =>   3
[1752120164.863020] [login02:1709066:0]            sys.c:880  UCX  ERROR shmget(size=12288 flags=0x7b0) for mm_recv_fifo failed: No space left on device, please check shared memory limits by 'ipcs -l'
[1752120164.863043] [login02:1709066:0]        mm_sysv.c:104  UCX  ERROR failed to allocate 8447 bytes with mm for mm_recv_fifo
[1752120164.863050] [login02:1709066:0]        uct_mem.c:147  UCX  ERROR failed to allocate 8447 bytes using md sysv for mm_recv_fifo: Out of memory
[1752120164.863054] [login02:1709066:0]       mm_iface.c:625  UCX  ERROR mm_iface failed to allocate receive FIFO
[1752120164.917856] [login02:1709059:0]            sys.c:880  UCX  ERROR shmget(size=12288 flags=0x7b0) for mm_recv_fifo failed: No space left on device, please check shared memory limits by 'ipcs -l'
[1752120164.917882] [login02:1709059:0]        mm_sysv.c:104  UCX  ERROR failed to allocate 8447 bytes with mm for mm_recv_fifo
[1752120164.917889] [login02:1709059:0]        uct_mem.c:147  UCX  ERROR failed to allocate 8447 bytes using md sysv for mm_recv_fifo: Out of memory
[1752120164.917894] [login02:1709059:0]       mm_iface.c:625  UCX  ERROR mm_iface failed to allocate receive FIFO
[1752120164.917859] [login02:1709060:0]            sys.c:880  UCX  ERROR shmget(size=12288 flags=0x7b0) for mm_recv_fifo failed: No space left on device, please check shared memory limits by 'ipcs -l'
[1752120164.917886] [login02:1709060:0]        mm_sysv.c:104  UCX  ERROR failed to allocate 8447 bytes with mm for mm_recv_fifo
[1752120164.917893] [login02:1709060:0]        uct_mem.c:147  UCX  ERROR failed to allocate 8447 bytes using md sysv for mm_recv_fifo: Out of memory
[1752120164.917897] [login02:1709060:0]       mm_iface.c:625  UCX  ERROR mm_iface failed to allocate receive FIFO
[1752120164.917857] [login02:1709061:0]            sys.c:880  UCX  ERROR shmget(size=12288 flags=0x7b0) for mm_recv_fifo failed: No space left on device, please check shared memory limits by 'ipcs -l'
[1752120164.917882] [login02:1709061:0]        mm_sysv.c:104  UCX  ERROR failed to allocate 8447 bytes with mm for mm_recv_fifo
[1752120164.917889] [login02:1709061:0]        uct_mem.c:147  UCX  ERROR failed to allocate 8447 bytes using md sysv for mm_recv_fifo: Out of memory
[1752120164.917893] [login02:1709061:0]       mm_iface.c:625  UCX  ERROR mm_iface failed to allocate receive FIFO
[1752120164.917866] [login02:1709062:0]            sys.c:880  UCX  ERROR shmget(size=12288 flags=0x7b0) for mm_recv_fifo failed: No space left on device, please check shared memory limits by 'ipcs -l'
[1752120164.917896] [login02:1709062:0]        mm_sysv.c:104  UCX  ERROR failed to allocate 8447 bytes with mm for mm_recv_fifo
[1752120164.917905] [login02:1709062:0]        uct_mem.c:147  UCX  ERROR failed to allocate 8447 bytes using md sysv for mm_recv_fifo: Out of memory
[1752120164.917910] [login02:1709062:0]       mm_iface.c:625  UCX  ERROR mm_iface failed to allocate receive FIFO
[1752120164.917858] [login02:1709064:0]            sys.c:880  UCX  ERROR shmget(size=12288 flags=0x7b0) for mm_recv_fifo failed: No space left on device, please check shared memory limits by 'ipcs -l'
[1752120164.917885] [login02:1709064:0]        mm_sysv.c:104  UCX  ERROR failed to allocate 8447 bytes with mm for mm_recv_fifo
[1752120164.917893] [login02:1709064:0]        uct_mem.c:147  UCX  ERROR failed to allocate 8447 bytes using md sysv for mm_recv_fifo: Out of memory
[1752120164.917897] [login02:1709064:0]       mm_iface.c:625  UCX  ERROR mm_iface failed to allocate receive FIFO
[1752120164.917857] [login02:1709065:0]            sys.c:880  UCX  ERROR shmget(size=12288 flags=0x7b0) for mm_recv_fifo failed: No space left on device, please check shared memory limits by 'ipcs -l'
[1752120164.917882] [login02:1709065:0]        mm_sysv.c:104  UCX  ERROR failed to allocate 8447 bytes with mm for mm_recv_fifo
[1752120164.917889] [login02:1709065:0]        uct_mem.c:147  UCX  ERROR failed to allocate 8447 bytes using md sysv for mm_recv_fifo: Out of memory
[1752120164.917893] [login02:1709065:0]       mm_iface.c:625  UCX  ERROR mm_iface failed to allocate receive FIFO
[1752120164.926137] [login02:1709063:0]            sys.c:880  UCX  ERROR shmget(size=12288 flags=0x7b0) for mm_recv_fifo failed: No space left on device, please check shared memory limits by 'ipcs -l'
[1752120164.926163] [login02:1709063:0]        mm_sysv.c:104  UCX  ERROR failed to allocate 8447 bytes with mm for mm_recv_fifo
[1752120164.926170] [login02:1709063:0]        uct_mem.c:147  UCX  ERROR failed to allocate 8447 bytes using md sysv for mm_recv_fifo: Out of memory
[1752120164.926174] [login02:1709063:0]       mm_iface.c:625  UCX  ERROR mm_iface failed to allocate receive FIFO


           ************************************************************
           *        Program running with 8 parallel MPI-processes     *
           *              working on a common directory               *
           ************************************************************
------------------------------------------------------------------------------
                             ORCA STARTUP CALCULATIONS
                           -- RI-GTO INTEGRALS CHOSEN --
------------------------------------------------------------------------------
------------------------------------------------------------------------------
                   ___                                                        
                  /   \      - P O W E R E D   B Y -                         
                 /     \                                                     
                 |  |  |   _    _      __       _____    __    __             
                 |  |  |  | |  | |    /  \     |  _  \  |  |  /  |          
                  \  \/   | |  | |   /    \    | | | |  |  | /  /          
                 / \  \   | |__| |  /  /\  \   | |_| |  |  |/  /          
                |  |  |   |  __  | /  /__\  \  |    /   |      \           
                |  |  |   | |  | | |   __   |  |    \   |  |\   \          
                \     /   | |  | | |  |  |  |  | |\  \  |  | \   \       
                 \___/    |_|  |_| |__|  |__|  |_| \__\ |__|  \__/        
                                                                              
                      - O R C A' S   B I G   F R I E N D -                    
                                      &                                       
                       - I N T E G R A L  F E E D E R -                       
                                                                              
 v1 FN, 2020, v2 2021, v3 2022-2024                                           
------------------------------------------------------------------------------


----------------------
SHARK INTEGRAL PACKAGE
----------------------

Number of atoms                             ...     40
Number of basis functions                   ...    846
Number of shells                            ...    330
Maximum angular momentum                    ...      3
Integral batch strategy                     ... SHARK/LIBINT Hybrid
RI-J (if used) integral strategy            ... SPLIT-RIJ (Revised 2003 algorithm where possible)
Printlevel                                  ...      1
Contraction scheme used                     ... SEGMENTED contraction
Prescreening option                         ... SCHWARTZ
   Thresh                                   ... 2.500e-11
   Tcut                                     ... 2.500e-12
   Tpresel                                  ... 2.500e-12 
Coulomb Range Separation                    ... NOT USED
Exchange Range Separation                   ... NOT USED
Multipole approximations                    ... NOT USED
Finite Nucleus Model                        ... NOT USED
CABS basis                                  ... NOT available
Auxiliary Coulomb fitting basis             ... AVAILABLE
   # of basis functions in Aux-J            ...   1354
   # of shells in Aux-J                     ...    442
   Maximum angular momentum in Aux-J        ...      4
Auxiliary J/K fitting basis                 ... NOT available
Auxiliary Correlation fitting basis         ... NOT available
Auxiliary 'external' fitting basis          ... NOT available

Checking pre-screening integrals            ... done (  0.0 sec) Dimension = 330
   => SHARK Basis and OBASIS are compatible. Storing Pre-screening
Shell pair information
Shell pair cut-off parameter TPreSel        ...   2.5e-12
Total number of shell pairs                 ...     54615
Shell pairs after pre-screening             ...     34850
Total number of primitive shell pairs       ...    170826
Primitive shell pairs kept                  ...     71606
          la=0 lb=0:   8833 shell pairs
          la=1 lb=0:  10155 shell pairs
          la=1 lb=1:   2944 shell pairs
          la=2 lb=0:   4891 shell pairs
          la=2 lb=1:   2849 shell pairs
          la=2 lb=2:    693 shell pairs
          la=3 lb=0:   2302 shell pairs
          la=3 lb=1:   1382 shell pairs
          la=3 lb=2:    639 shell pairs
          la=3 lb=3:    162 shell pairs

Checking whether 4 symmetric matrices of dimension 846 fit in memory
:Max Core in MB      =   2000.00
 MB in use           =     45.82
 MB left             =   1954.18
 MB needed           =     10.93
 Data fit in memory  = YES
Calculating RI/J V-Matrix + Cholesky decomp.... done (259.2 sec)
Calculating Nuclear repulsion               ... done (  0.0 sec) ENN=   2327.019592173340 Eh

Diagonalization of the overlap matrix:
Smallest eigenvalue                        ... 7.530e-06
Time for diagonalization                   ...    0.414 sec
Threshold for overlap eigenvalues          ... 1.000e-07
Number of eigenvalues below threshold      ... 0
