
                                 *****************
                                 * O   R   C   A *
                                 *****************

                                            #,                                       
                                            ###                                      
                                            ####                                     
                                            #####                                    
                                            ######                                   
                                           ########,                                 
                                     ,,################,,,,,                         
                               ,,#################################,,                 
                          ,,##########################################,,             
                       ,#########################################, ''#####,          
                    ,#############################################,,   '####,        
                  ,##################################################,,,,####,       
                ,###########''''           ''''###############################       
              ,#####''   ,,,,##########,,,,          '''####'''          '####       
            ,##' ,,,,###########################,,,                        '##       
           ' ,,###''''                  '''############,,,                           
         ,,##''                                '''############,,,,        ,,,,,,###''
      ,#''                                            '''#######################'''  
     '                                                          ''''####''''         
             ,#######,   #######,   ,#######,      ##                                
            ,#'     '#,  ##    ##  ,#'     '#,    #''#        ,####,    ,#,          
            ##       ##  ##   ,#'  ##            #'  '#       #'       ,# #          
            ##       ##  #######   ##           ,######,      #####,      #          
            '#,     ,#'  ##    ##  '#,     ,#' ,#      #,     #,   #      #          
             '#######'   ##     ##  '#######'  #'      '#     '####' #    #          



                #########################################################
                #                        -***-                          #
                #          Department of theory and spectroscopy        #
                #                                                       #
                #                      Frank Neese                      #
                #                                                       #
                #     Directorship, Architecture, Infrastructure        #
                #                    SHARK, DRIVERS                     #
                #        Core code/Algorithms in most modules           #
                #                                                       #
                #        Max Planck Institute fuer Kohlenforschung      #
                #                Kaiser Wilhelm Platz 1                 #
                #                 D-45470 Muelheim/Ruhr                 #
                #                      Germany                          #
                #                                                       #
                #                  All rights reserved                  #
                #                        -***-                          #
                #########################################################


                         Program Version 6.1.0  -  RELEASE   -
                                (GIT: $679e74b$)
                          ($2025-06-10 18:02:51 +0200$)


 With contributions from (in alphabetic order):
[Max-Planck-Institut fuer Kohlenforschung]                               
  Daniel Aravena         : Magnetic Suceptibility                        
  Michael Atanasov       : Ab Initio Ligand Field Theory (pilot matlab implementation)
  Alexander A. Auer      : GIAO ZORA, VPT2 properties, NMR spectrum      
  Ute Becker             : All parallelization in ORCA, NUMFREQ, NUMCALC 
  Giovanni Bistoni       : ED, misc. LED, open-shell LED, HFLD           
  Dmytro Bykov           : pre 5.0 version of the SCF Hessian            
  Marcos Casanova-Páez   : Triplet and SCS-CIS(D). UHF-(DLPNO)-IP/EA/STEOM-CCSD. UHF-CVS-IP/STEOM-CCSD   
  Vijay G. Chilkuri      : MRCI spin determinant printing, contributions to CSF-ICE 
  Pauline Colinet        : FMM embedding                                 
  Dipayan Datta          : RHF DLPNO-CCSD density                        
  Achintya Kumar Dutta   : EOM-CC, STEOM-CC                              
  Nicolas Foglia         : Exact transition moments, OPA infrastructure, MCD improvements    
  Dmitry Ganyushin       : Spin-Orbit,Spin-Spin,Magnetic field MRCI      
  Miquel Garcia-Rates    : C-PCM and meta-GGA Hessian, CCSD/C-PCM, Gaussian charge scheme 
  Tiago L. C. Gouveia    : GS-ROHF, GS-ROCIS                             
  Yang Guo               : DLPNO-NEVPT2, F12-NEVPT2, CIM, IAO-localization        
  Andreas Hansen         : Spin unrestricted coupled pair/coupled cluster methods 
  Ingolf Harden          : AUTO-CI MPn and infrastructure                
  Benjamin Helmich-Paris : MC-RPA, TRAH-(SCF,CASSCF), AVAS, COSX integrals, SCF dyn. polar., MC-PDFT, srDFT 
  Lee Huntington         : MR-EOM, pCC                                   
  Robert Izsak           : Overlap fitted RIJCOSX, COSX-SCS-MP3, EOM     
  Riya Kayal             : Wick's Theorem for AUTO-CI, AUTO-CI UHF-CCSDT 
  Emily Kempfer          : AUTO-CI RHF CISDT and CCSDT, approximate NEVPT4
  Christian Kollmar      : KDIIS, OOCD, Brueckner-CCSD(T), CCSD density, CASPT2, CASPT2-K, improved NEVPT2 
  Axel Koslowski         : Symmetry handling                             
  Simone Kossmann        : meta-GGA functionals, TD-DFT gradient, OOMP2, (MP2 Hessian; deprecated post 5.0) 
  Lucas Lang             : DCDCAS, Hyperfine gauge corrections, ICE-SOC+SSC
  Marvin Lechner         : AUTO-CI (C++ implementation), FIC-MRCC        
  Spencer Leger          : CASSCF response                               
  Dagmar Lenk            : GEPOL surface, SMD, ORCA-2-JSON               
  Dimitrios Liakos       : Extrapolation schemes; Compound Job, Property file
  Dimitrios Manganas     : Further ROCIS development; embedding schemes. LFT, Crystal Embedding 
  Dimitrios Pantazis     : SARC Basis sets                               
  Anastasios Papadopoulos: AUTO-CI, single reference methods and gradients 
  Taras Petrenko         : pre 6.0 DFT Hessian and TD-DFT gradient,  ECA, NRVS 
  Petra Pikulova         : Analytic Raman intensities                    
  Peter Pinski           : DLPNO-MP2, DLPNO-MP2 Gradient                 
  Shashank Vittal Rao    : ES-AILFT, MagRelax                            
  Christoph Reimann      : Effective Core Potentials                     
  Marius Retegan         : Local ZFS, SOC                                
  Christoph Riplinger    : Optimizer, TS searches, QM/MM, DLPNO-CCSD(T), (RO)-DLPNO pert. Triples 
  Michael Roemelt        : Original ROCIS implementation, recursive CI coupling coefficients
  Masaaki Saitow         : Open-shell DLPNO-CCSD energy and density      
  Barbara Sandhoefer     : DKH picture change effects                    
  Yorick L. A. Schmerwitz: GMF and freeze-and-release deltaSCF, NEB S-IDPP initial path                    
  Kantharuban Sivalingam : CASSCF convergence/infrastructure, NEVPT2, NEVPT3, NEVPT4(SD), FIC-MRCI and CEPA variants
  Bernardo de Souza      : ESD, SOC TD-DFT                               
  Georgi L. Stoychev     : AutoAux, RI-MP2 NMR, DLPNO-MP2 response, X2C  
  Van Anh Tran           : RI-MP2 g-tensors                              
  Willem Van den Heuvel  : Paramagnetic NMR                              
  Zikuan Wang            : NOTCH, Electric field optimization            
  Frank Wennmohs         : Technical directorship and infrastructure     
  Hang Xu                : AUTO-CI-Response properties                   
                                                                         
[FACCTs GmbH]                                                            
  Markus Bursch, Nicolas Foglia, Miquel Garcia-Rates, Ingolf Harden, Hagen Neugebauer, Anastasios Papadopoulos, 
  Christoph Riplinger, Bernardo de Souza, Georgi L. Stoychev                                                    
                                                                 
  APM, various basis sets, CI-OPT, improved COSX, DLPNO-Multilevel,           
  DOCKER, DRACO, updates on ESD, Fragmentator, GOAT, IRC, LR-CPCM, L-BFGS, MBIS, meta-GGA TD-DFT gradient, ML-optimized integration grids, 
  MM, NACMEs, nearIR, NEB, NEB-TS, NL-DFT gradient (VV10), 2- and 3-layer-ONIOM, interface openCOSMO-RS, QMMM,   
  Crystal-QMMM, RESP, rigid body optimization, SF, symmetry and pop. for TD-DFT, various functionals, SOLVATOR                                   
                                                                         
[Other institutions]                                                     
  V. Asgeirsson          : NEB                                           
  Christoph Bannwarth    : sTDA-DFT, sTD-DFT, PBEh-3c, B97-3c, D3        
  Giovanni Bistoni       : ETS/NOCV, ADLD/ADEX, COVALED                  
  Martin Brehm           : Molecular dynamics                            
  Ronald Cardenas        : ETS/NOCV                                      
  Martina Colucci        : COVALED                                       
  Sebastian Ehlert       : rSCAN, r2SCAN, r2SCAN-3c, D4, dhf basis sets  
  Marvin Friede          : D4 for Fr, Ra, Ac-Lr                          
  Lars Goerigk           : TD-DFT with DH, B97 family of functionals     
  Stefan Grimme          : VdW corrections, initial TS optimization, DFT functionals, gCP, sTDA/sTD-DF 
  Waldemar Hujo          : DFT-NL                                        
  H. Jonsson             : NEB                                           
  Holger Kruse           : gCP                                           
  Marcel Mueller         : wB97X-3c, vDZP basis set                      
  Hagen Neugebauer       : wr2SCAN, Native XTB                           
  Gianluca Regni         : ADLD/ADEX                                     
  Tobias Risthaus        : pre 6.0 range-separated hybrid DFT and stability analysis
  Lukas Wittmann         : regularized MP2, r2SCAN double-hybrids, wr2SCAN        
                                                                         
We gratefully acknowledge several colleagues who have allowed us to      
interface, adapt or use parts of their codes:                            
  Ed Valeev, F. Pavosevic, A. Kumar             : LibInt (2-el integral package), F12 methods 
  Garnet Chan, S. Sharma, J. Yang, R. Olivares  : DMRG                   
  Ulf Ekstrom                                   : XCFun DFT Library      
  Mihaly Kallay                                 : mrcc  (arbitrary order and MRCC methods)
  Frank Weinhold                                : gennbo (NPA and NBO analysis)           
  Simon Mueller                                 : openCOSMO-RS                            
  Christopher J. Cramer and Donald G. Truhlar   : smd solvation model                     
  S Lehtola, MJT Oliveira, MAL Marques          : LibXC Library                           
  Liviu Ungur et al                             : ANISO software                          


 Your calculation uses the libint2 library for the computation of 2-el integrals
 For citations please refer to: http://libint.valeyev.net

 Your ORCA version has been built with support for libXC version: 7.0.0
 For citations please refer to: https://libxc.gitlab.io

 This ORCA versions uses:
   CBLAS   interface :  Fast vector & matrix operations
   LAPACKE interface :  Fast linear algebra routines
   SCALAPACK package :  Parallel linear algebra routines
   Shared memory     :  Shared parallel matrices
   BLAS/LAPACK       :  OpenBLAS 0.3.29  USE64BITINT DYNAMIC_ARCH NO_AFFINITY Zen SINGLE_THREADED
        Core in use  :  Zen
   Copyright (c) 2011-2014, The OpenBLAS Project


  ***********************************
  * Starting time: Wed Jul  2 14:22:07 2025
  * Host name:     exp-1-08
  * Process ID:    2111658
  * Working dir.:  /scratch/aweiland/job_40839763
  ***********************************

NOTE: MaxCore=2000 MB was set to SCF,MP2,MDCI,CIPSI,MRCI,RASCI and CIS
      => If you want to overwrite this, your respective input block should be placed after the MaxCore statement
Your calculation utilizes the atom-pairwise dispersion correction
with the Becke-Johnson damping scheme (D3BJ)


Warning: RI is on but no J-basis has been assigned. Assigning Def2/J (nothing to worry about!)
================================================================================

----- Orbital basis set information -----
Your calculation utilizes the basis: def2-TZVP
   F. Weigend and R. Ahlrichs, Phys. Chem. Chem. Phys. 7, 3297 (2005).

----- AuxJ basis set information -----
Your calculation utilizes the auxiliary basis: def2/J
   H-Rn: F. Weigend, Phys. Chem. Chem. Phys. 8, 1057 (2006).
   Fr-Lr: K. Eichkorn, F. Weigend, O. Treutler, R. Ahlrichs; Theor. Chem. Acc. 97, 119 (1997).

================================================================================
                                        WARNINGS
                       Please study these warnings very carefully!
================================================================================


WARNING: Geometry Optimization
  ===> : Switching off AutoStart
         For restart on a previous wavefunction, please use MOREAD

================================================================================
                                       INPUT FILE
================================================================================
NAME = B3.inp
|  1> ! B3LYP D3 def2-TZVP OPT FREQ
|  2> 
|  3> %pal
|  4>   nprocs 8
|  5> end
|  6> 
|  7> %maxcore 2000
|  8> 
|  9> * xyz 0 1
| 10> O   -0.6052   0.5922   -0.7685
| 11> C   -1.7506   0.0461   -0.1664
| 12> O   -1.9967   -1.1790   -0.8061
| 13> C   -3.2141   -1.8356   -0.4735
| 14> C   -4.4050   -0.8816   -0.6227
| 15> O   -5.5604   -1.5339   -0.1464
| 16> H   -6.2695   -0.8802   -0.1450
| 17> C   -4.1799   0.4395   0.0845
| 18> O   -5.2839   1.2661   -0.2363
| 19> H   -5.0989   2.1440   0.1163
| 20> C   -2.8775   1.0416   -0.3900
| 21> O   -2.6576   2.2239   0.3354
| 22> H   -1.7941   2.5968   0.0924
| 23> H   -2.9389   1.2370   -1.4688
| 24> H   -4.1260   0.2761   1.1646
| 25> H   -4.5119   -0.6565   -1.6921
| 26> C   -3.1447   -2.5730   0.8504
| 27> O   -2.9643   -1.6622   1.9241
| 28> H   -3.1815   -2.1015   2.7496
| 29> H   -2.3028   -3.2712   0.7995
| 30> H   -4.0737   -3.1361   0.9644
| 31> H   -3.3224   -2.6121   -1.2341
| 32> H   -1.5842   -0.0926   0.9070
| 33> C   0.5561   0.6500   -0.0553
| 34> C   0.9750   2.1257   0.0869
| 35> O   0.1639   3.0227   0.1022
| 36> N   2.3067   2.3143   0.2535
| 37> C   3.2362   1.2668   0.2094
| 38> C   4.5500   1.4182   0.6223
| 39> C   5.4453   0.3665   0.5039
| 40> C   5.0086   -0.8382   -0.0236
| 41> C   3.6943   -1.0134   -0.4278
| 42> C   2.8106   0.0438   -0.3079
| 43> O   1.5334   -0.1022   -0.7528
| 44> H   3.3487   -1.9510   -0.8393
| 45> Cl  6.1203   -2.1560   -0.1745
| 46> H   6.4729   0.4785   0.8174
| 47> H   4.8777   2.3676   1.0274
| 48> H   2.6172   3.2601   0.4242
| 49> H   0.4368   0.2338   0.9560
| 50> *
| 51> 
| 52>                          ****END OF INPUT****
================================================================================

                       *****************************
                       * Geometry Optimization Run *
                       *****************************

Geometry optimization settings:
Update method            Update   .... BFGS
Choice of coordinates    CoordSys .... (2022) Redundant Internals
Initial Hessian          InHess   .... Almloef's Model
Max. no of cycles        MaxIter  .... 120

Convergence Tolerances:
Energy Change            TolE     ....  5.0000e-06 Eh
Max. Gradient            TolMAXG  ....  3.0000e-04 Eh/bohr
RMS Gradient             TolRMSG  ....  1.0000e-04 Eh/bohr
Max. Displacement        TolMAXD  ....  4.0000e-03 bohr
RMS Displacement         TolRMSD  ....  2.0000e-03 bohr
Strict Convergence                .... False

------------------------------------------------------------------------------
                        ORCA OPTIMIZATION COORDINATE SETUP
------------------------------------------------------------------------------

The optimization will be done in redundant internal coordinates (2022)
Making redundant internal coordinates   ...  (2022 redundants) done
Evaluating the initial hessian          ...  (Almloef) done
Evaluating the coordinates              ...  done
Calculating the B-matrix                .... done
Calculating the G-matrix                .... done
The number of degrees of freedom        ....  213

    -----------------------------------------------------------------
                    Redundant Internal Coordinates


    -----------------------------------------------------------------
         Definition                    Initial Value    Approx d2E/dq
    -----------------------------------------------------------------
      1. B(C   1,O   0)                  1.4045         0.530520   
      2. B(O   2,C   1)                  1.4038         0.531937   
      3. B(C   3,O   2)                  1.4226         0.496425   
      4. B(C   4,C   3)                  1.5332         0.369245   
      5. B(O   5,C   4)                  1.4097         0.520494   
      6. B(H   6,O   5)                  0.9644         0.511540   
      7. B(C   7,C   4)                  1.5153         0.394316   
      8. B(O   8,H   6)                  2.3635         0.010000   
      9. B(O   8,C   7)                  1.4160         0.508660   
     10. B(H   9,O   8)                  0.9640         0.512407   
     11. B(C  10,C   7)                  1.5113         0.400192   
     12. B(C  10,C   1)                  1.5202         0.387310   
     13. B(O  11,C  10)                  1.4044         0.530725   
     14. B(H  12,O  11)                  0.9715         0.498519   
     15. B(H  13,C  10)                  1.0981         0.349579   
     16. B(H  14,C   7)                  1.0937         0.355214   
     17. B(H  15,C   4)                  1.0981         0.349607   
     18. B(C  16,C   3)                  1.5170         0.391850   
     19. B(O  17,C  16)                  1.4195         0.502154   
     20. B(H  18,O  17)                  0.9600         0.519946   
     21. B(H  19,C  16)                  1.0949         0.353638   
     22. B(H  20,C  16)                  1.0923         0.357071   
     23. B(H  21,C   3)                  1.0923         0.357026   
     24. B(H  22,C   1)                  1.0950         0.353493   
     25. B(C  23,O   0)                  1.3640         0.615586   
     26. B(C  24,C  23)                  1.5406         0.359333   
     27. B(O  25,C  24)                  1.2094         1.086325   
     28. B(O  25,H  12)                  2.0038         0.011237   
     29. B(N  26,C  24)                  1.3553         0.635753   
     30. B(C  27,N  26)                  1.4011         0.537174   
     31. B(C  28,C  27)                  1.3855         0.635322   
     32. B(C  29,C  28)                  1.3862         0.633493   
     33. B(C  30,C  29)                  1.3857         0.634660   
     34. B(C  31,C  30)                  1.3862         0.633658   
     35. B(C  32,C  31)                  1.3831         0.640829   
     36. B(C  32,C  27)                  1.3944         0.614688   
     37. B(O  33,C  32)                  1.3603         0.624044   
     38. B(O  33,C  23)                  1.4168         0.507060   
     39. B(H  34,C  31)                  1.0807         0.372645   
     40. B(Cl 35,C  30)                  1.7307         0.401056   
     41. B(H  36,C  29)                  1.0802         0.373328   
     42. B(H  37,C  28)                  1.0830         0.369502   
     43. B(H  38,N  26)                  1.0100         0.432719   
     44. B(H  39,C  23)                  1.1001         0.347005   
     45. A(C   1,O   0,C  23)          119.1193         0.416116   
     46. A(O   2,C   1,H  22)          111.2715         0.340760   
     47. A(O   0,C   1,H  22)          110.2147         0.340608   
     48. A(O   0,C   1,O   2)          106.6747         0.405480   
     49. A(O   0,C   1,C  10)          106.6700         0.385992   
     50. A(O   2,C   1,C  10)          111.9943         0.386171   
     51. A(C  10,C   1,H  22)          109.8631         0.325257   
     52. A(C   1,O   2,C   3)          116.5051         0.400757   
     53. A(C   4,C   3,H  21)          107.3108         0.323244   
     54. A(O   2,C   3,C  16)          112.9073         0.382333   
     55. A(C   4,C   3,C  16)          115.0195         0.365603   
     56. A(O   2,C   3,H  21)          104.4862         0.337412   
     57. A(O   2,C   3,C   4)          110.7791         0.378415   
     58. A(C  16,C   3,H  21)          105.4659         0.326415   
     59. A(C   3,C   4,C   7)          112.4384         0.365996   
     60. A(C   7,C   4,H  15)          106.8739         0.325625   
     61. A(C   3,C   4,O   5)          108.4107         0.381533   
     62. A(O   5,C   4,H  15)          110.1280         0.338898   
     63. A(C   3,C   4,H  15)          107.3348         0.322133   
     64. A(O   5,C   4,C   7)          111.5605         0.385915   
     65. A(C   4,O   5,H   6)          106.8259         0.358206   
     66. A(O   8,C   7,C  10)          111.6051         0.385364   
     67. A(C   4,C   7,C  10)          109.1982         0.371088   
     68. A(C  10,C   7,H  14)          109.0939         0.327275   
     69. A(O   8,C   7,H  14)          110.4490         0.338497   
     70. A(C   4,C   7,H  14)          109.7530         0.326479   
     71. A(C   4,C   7,O   8)          106.7021         0.384373   
     72. A(C   7,O   8,H   9)          107.4059         0.356911   
     73. A(C   1,C  10,C   7)          109.3758         0.369945   
     74. A(O  11,C  10,H  13)          111.4937         0.339997   
     75. A(C   7,C  10,H  13)          109.3400         0.326415   
     76. A(C   1,C  10,H  13)          107.6072         0.324663   
     77. A(C   1,C  10,O  11)          111.0539         0.386018   
     78. A(C   7,C  10,O  11)          107.9485         0.388226   
     79. A(C  10,O  11,H  12)          109.4584         0.357822   
     80. A(H  19,C  16,H  20)          109.2736         0.289630   
     81. A(C   3,C  16,O  17)          110.7344         0.383096   
     82. A(C   3,C  16,H  19)          107.7323         0.325903   
     83. A(O  17,C  16,H  20)          111.0955         0.338065   
     84. A(C   3,C  16,H  20)          107.6236         0.326422   
     85. A(O  17,C  16,H  19)          110.2793         0.337521   
     86. A(C  16,O  17,H  18)          109.1507         0.357016   
     87. A(C  24,C  23,O  33)          111.4953         0.378021   
     88. A(O   0,C  23,O  33)          107.9000         0.412785   
     89. A(O   0,C  23,H  39)          111.8576         0.348133   
     90. A(O   0,C  23,C  24)          108.6839         0.390990   
     91. A(O  33,C  23,H  39)          109.0570         0.337004   
     92. A(C  24,C  23,H  39)          107.8807         0.320310   
     93. A(O  25,C  24,N  26)          123.6568         0.476543   
     94. A(C  23,C  24,N  26)          114.3198         0.393202   
     95. A(C  23,C  24,O  25)          121.9546         0.432419   
     96. A(C  24,N  26,C  27)          122.9529         0.419443   
     97. A(C  27,N  26,H  38)          120.0971         0.350058   
     98. A(C  24,N  26,H  38)          116.9475         0.360206   
     99. A(C  28,C  27,C  32)          119.7245         0.435303   
    100. A(N  26,C  27,C  32)          117.7034         0.419653   
    101. A(N  26,C  27,C  28)          122.5479         0.422133   
    102. A(C  27,C  28,C  29)          120.2707         0.437673   
    103. A(C  29,C  28,H  37)          120.1068         0.355750   
    104. A(C  27,C  28,H  37)          119.6183         0.355924   
    105. A(C  28,C  29,C  30)          119.2445         0.437591   
    106. A(C  30,C  29,H  36)          120.0278         0.356484   
    107. A(C  28,C  29,H  36)          120.7277         0.356372   
    108. A(C  29,C  30,Cl 35)          119.5196         0.421457   
    109. A(C  29,C  30,C  31)          121.3108         0.437611   
    110. A(C  31,C  30,Cl 35)          119.1687         0.421339   
    111. A(C  32,C  31,H  34)          119.4622         0.356959   
    112. A(C  30,C  31,H  34)          121.5949         0.356277   
    113. A(C  30,C  31,C  32)          118.9412         0.438375   
    114. A(C  31,C  32,O  33)          119.3072         0.434304   
    115. A(C  27,C  32,O  33)          120.1338         0.431064   
    116. A(C  27,C  32,C  31)          120.5004         0.435980   
    117. A(C  23,O  33,C  32)          115.4446         0.413786   
    118. D(H  22,C   1,O   0,C  23)     11.0210         0.022353   
    119. D(C  10,C   1,O   0,C  23)    130.2448         0.022353   
    120. D(O   2,C   1,O   0,C  23)   -109.9006         0.022353   
    121. D(C   3,O   2,C   1,H  22)     67.4724         0.022478   
    122. D(C   3,O   2,C   1,C  10)    -55.9276         0.022478   
    123. D(C   3,O   2,C   1,O   0)   -172.2832         0.022478   
    124. D(C  16,C   3,O   2,C   1)    -79.1476         0.019474   
    125. D(H  21,C   3,O   2,C   1)    166.7621         0.019474   
    126. D(C   4,C   3,O   2,C   1)     51.5012         0.019474   
    127. D(C   7,C   4,C   3,C  16)     79.5629         0.010902   
    128. D(C   7,C   4,C   3,O   2)    -49.9705         0.010902   
    129. D(O   5,C   4,C   3,H  21)     72.7313         0.010902   
    130. D(O   5,C   4,C   3,C  16)    -44.2504         0.010902   
    131. D(C   7,C   4,C   3,H  21)   -163.4554         0.010902   
    132. D(O   5,C   4,C   3,O   2)   -173.7839         0.010902   
    133. D(H   6,O   5,C   4,H  15)    -69.9090         0.021480   
    134. D(H   6,O   5,C   4,C   7)     48.5951         0.021480   
    135. D(H   6,O   5,C   4,C   3)    172.9328         0.021480   
    136. D(C  10,C   7,C   4,H  15)    -63.7995         0.012350   
    137. D(C  10,C   7,C   4,O   5)    175.7689         0.012350   
    138. D(C  10,C   7,C   4,C   3)     53.7247         0.012350   
    139. D(O   8,C   7,C   4,H  15)     56.9671         0.012350   
    140. D(O   8,C   7,C   4,O   5)    -63.4644         0.012350   
    141. D(O   8,C   7,C   4,C   3)    174.4913         0.012350   
    142. D(H   9,O   8,C   7,H  14)     67.7092         0.022222   
    143. D(H   9,O   8,C   7,C  10)    -53.8357         0.022222   
    144. D(H   9,O   8,C   7,C   4)   -173.0512         0.022222   
    145. D(O  11,C  10,C   1,O   0)    -67.8800         0.011933   
    146. D(C   7,C  10,C   1,H  22)    -67.4672         0.011933   
    147. D(C   7,C  10,C   1,O   2)     56.7224         0.011933   
    148. D(C   7,C  10,C   1,O   0)    173.0808         0.011933   
    149. D(O  11,C  10,C   7,O   8)     65.5702         0.012706   
    150. D(O  11,C  10,C   7,C   4)   -176.7057         0.012706   
    151. D(C   1,C  10,C   7,H  14)     64.1887         0.012706   
    152. D(C   1,C  10,C   7,O   8)   -173.4849         0.012706   
    153. D(C   1,C  10,C   7,C   4)    -55.7608         0.012706   
    154. D(O  11,C  10,C   1,H  22)     51.5720         0.011933   
    155. D(O  11,C  10,C   7,H  14)    -56.7562         0.012706   
    156. D(O  11,C  10,C   1,O   2)    175.7616         0.011933   
    157. D(H  12,O  11,C  10,H  13)    -63.8677         0.022371   
    158. D(H  12,O  11,C  10,C   7)    176.0205         0.022371   
    159. D(H  12,O  11,C  10,C   1)     56.1280         0.022371   
    160. D(H  19,C  16,C   3,H  21)     57.6917         0.012202   
    161. D(H  19,C  16,C   3,C   4)    175.7155         0.012202   
    162. D(H  19,C  16,C   3,O   2)    -55.8043         0.012202   
    163. D(O  17,C  16,C   3,C   4)    -63.6117         0.012202   
    164. D(O  17,C  16,C   3,O   2)     64.8685         0.012202   
    165. D(O  17,C  16,C   3,H  21)    178.3644         0.012202   
    166. D(H  18,O  17,C  16,H  20)     43.7980         0.019940   
    167. D(H  18,O  17,C  16,H  19)    -77.5150         0.019940   
    168. D(H  18,O  17,C  16,C   3)    163.3374         0.019940   
    169. D(H  39,C  23,O   0,C   1)      0.2009         0.030651   
    170. D(O  33,C  23,O   0,C   1)    120.1518         0.030651   
    171. D(C  24,C  23,O   0,C   1)   -118.8033         0.030651   
    172. D(N  26,C  24,C  23,O  33)    -35.0300         0.010000   
    173. D(N  26,C  24,C  23,O   0)   -153.8385         0.010000   
    174. D(O  25,C  24,C  23,H  39)    -92.3950         0.010000   
    175. D(O  25,C  24,C  23,O  33)    147.8840         0.010000   
    176. D(O  25,C  24,C  23,O   0)     29.0754         0.010000   
    177. D(H  38,N  26,C  24,O  25)      1.7466         0.032861   
    178. D(H  38,N  26,C  24,C  23)   -175.2831         0.032861   
    179. D(C  27,N  26,C  24,O  25)   -178.8299         0.032861   
    180. D(C  27,N  26,C  24,C  23)      4.1405         0.032861   
    181. D(C  32,C  27,N  26,H  38)   -166.4606         0.022944   
    182. D(C  32,C  27,N  26,C  24)     14.1333         0.022944   
    183. D(C  28,C  27,N  26,H  38)     11.7456         0.022944   
    184. D(C  28,C  27,N  26,C  24)   -167.6605         0.022944   
    185. D(H  37,C  28,C  27,C  32)   -179.7611         0.028017   
    186. D(H  37,C  28,C  27,N  26)      2.0677         0.028017   
    187. D(C  29,C  28,C  27,C  32)      0.9884         0.028017   
    188. D(C  29,C  28,C  27,N  26)   -177.1827         0.028017   
    189. D(H  36,C  29,C  28,H  37)      0.3450         0.027845   
    190. D(H  36,C  29,C  28,C  27)    179.5918         0.027845   
    191. D(C  30,C  29,C  28,H  37)   -179.6520         0.027845   
    192. D(C  30,C  29,C  28,C  27)     -0.4052         0.027845   
    193. D(Cl 35,C  30,C  29,H  36)      0.0090         0.027954   
    194. D(Cl 35,C  30,C  29,C  28)   -179.9940         0.027954   
    195. D(C  31,C  30,C  29,H  36)    179.6603         0.027954   
    196. D(C  31,C  30,C  29,C  28)     -0.3427         0.027954   
    197. D(H  34,C  31,C  30,Cl 35)     -0.3164         0.027861   
    198. D(H  34,C  31,C  30,C  29)   -179.9689         0.027861   
    199. D(C  32,C  31,C  30,Cl 35)   -179.8562         0.027861   
    200. D(C  32,C  31,C  30,C  29)      0.4913         0.027861   
    201. D(O  33,C  32,C  31,C  30)    177.3229         0.028537   
    202. D(C  27,C  32,C  31,H  34)   -179.4466         0.028537   
    203. D(C  27,C  32,C  31,C  30)      0.1032         0.028537   
    204. D(O  33,C  32,C  27,C  28)   -178.0347         0.026119   
    205. D(O  33,C  32,C  27,N  26)      0.2241         0.026119   
    206. D(C  31,C  32,C  27,C  28)     -0.8380         0.026119   
    207. D(O  33,C  32,C  31,H  34)     -2.2269         0.028537   
    208. D(C  31,C  32,C  27,N  26)    177.4208         0.026119   
    209. D(C  23,O  33,C  32,C  31)    149.5609         0.028599   
    210. D(C  23,O  33,C  32,C  27)    -33.2091         0.028599   
    211. D(C  32,O  33,C  23,H  39)    -69.5281         0.020345   
    212. D(C  32,O  33,C  23,C  24)     49.4949         0.020345   
    213. D(C  32,O  33,C  23,O   0)    168.7701         0.020345   
    -----------------------------------------------------------------

Number of atoms                         .... 40
Number of degrees of freedom            .... 213


         *************************************************************
         *                GEOMETRY OPTIMIZATION CYCLE   1            *
         *************************************************************
---------------------------------
CARTESIAN COORDINATES (ANGSTROEM)
---------------------------------
  O     -0.605200    0.592200   -0.768500
  C     -1.750600    0.046100   -0.166400
  O     -1.996700   -1.179000   -0.806100
  C     -3.214100   -1.835600   -0.473500
  C     -4.405000   -0.881600   -0.622700
  O     -5.560400   -1.533900   -0.146400
  H     -6.269500   -0.880200   -0.145000
  C     -4.179900    0.439500    0.084500
  O     -5.283900    1.266100   -0.236300
  H     -5.098900    2.144000    0.116300
  C     -2.877500    1.041600   -0.390000
  O     -2.657600    2.223900    0.335400
  H     -1.794100    2.596800    0.092400
  H     -2.938900    1.237000   -1.468800
  H     -4.126000    0.276100    1.164600
  H     -4.511900   -0.656500   -1.692100
  C     -3.144700   -2.573000    0.850400
  O     -2.964300   -1.662200    1.924100
  H     -3.181500   -2.101500    2.749600
  H     -2.302800   -3.271200    0.799500
  H     -4.073700   -3.136100    0.964400
  H     -3.322400   -2.612100   -1.234100
  H     -1.584200   -0.092600    0.907000
  C      0.556100    0.650000   -0.055300
  C      0.975000    2.125700    0.086900
  O      0.163900    3.022700    0.102200
  N      2.306700    2.314300    0.253500
  C      3.236200    1.266800    0.209400
  C      4.550000    1.418200    0.622300
  C      5.445300    0.366500    0.503900
  C      5.008600   -0.838200   -0.023600
  C      3.694300   -1.013400   -0.427800
  C      2.810600    0.043800   -0.307900
  O      1.533400   -0.102200   -0.752800
  H      3.348700   -1.951000   -0.839300
  Cl     6.120300   -2.156000   -0.174500
  H      6.472900    0.478500    0.817400
  H      4.877700    2.367600    1.027400
  H      2.617200    3.260100    0.424200
  H      0.436800    0.233800    0.956000

----------------------------
CARTESIAN COORDINATES (A.U.)
----------------------------
  NO LB      ZA    FRAG     MASS         X           Y           Z
   0 O     8.0000    0    15.999   -1.143662    1.119096   -1.452255
   1 C     6.0000    0    12.011   -3.308155    0.087116   -0.314450
   2 O     8.0000    0    15.999   -3.773216   -2.227987   -1.523308
   3 C     6.0000    0    12.011   -6.073769   -3.468781   -0.894785
   4 C     6.0000    0    12.011   -8.324244   -1.665983   -1.176732
   5 O     8.0000    0    15.999  -10.507633   -2.898651   -0.276656
   6 H     1.0000    0     1.008  -11.847638   -1.663337   -0.274010
   7 C     6.0000    0    12.011   -7.898866    0.830535    0.159682
   8 O     8.0000    0    15.999   -9.985124    2.392582   -0.446542
   9 H     1.0000    0     1.008   -9.635525    4.051573    0.219775
  10 C     6.0000    0    12.011   -5.437687    1.968339   -0.736993
  11 O     8.0000    0    15.999   -5.022136    4.202562    0.633814
  12 H     1.0000    0     1.008   -3.390358    4.907241    0.174611
  13 H     1.0000    0     1.008   -5.553716    2.337591   -2.775630
  14 H     1.0000    0     1.008   -7.797010    0.521753    2.200775
  15 H     1.0000    0     1.008   -8.526255   -1.240605   -3.197606
  16 C     6.0000    0    12.011   -5.942622   -4.862265    1.607023
  17 O     8.0000    0    15.999   -5.601715   -3.141103    3.636022
  18 H     1.0000    0     1.008   -6.012164   -3.971259    5.195991
  19 H     1.0000    0     1.008   -4.351661   -6.181672    1.510836
  20 H     1.0000    0     1.008   -7.698177   -5.926370    1.822452
  21 H     1.0000    0     1.008   -6.278426   -4.936154   -2.332111
  22 H     1.0000    0     1.008   -2.993704   -0.174989    1.713982
  23 C     6.0000    0    12.011    1.050877    1.228322   -0.104502
  24 C     6.0000    0    12.011    1.842483    4.016991    0.164217
  25 O     8.0000    0    15.999    0.309726    5.712075    0.193130
  26 N     7.0000    0    14.007    4.359031    4.373393    0.479046
  27 C     6.0000    0    12.011    6.115532    2.393905    0.395709
  28 C     6.0000    0    12.011    8.598254    2.680010    1.175977
  29 C     6.0000    0    12.011   10.290126    0.692585    0.952233
  30 C     6.0000    0    12.011    9.464882   -1.583968   -0.044598
  31 C     6.0000    0    12.011    6.981215   -1.915048   -0.808425
  32 C     6.0000    0    12.011    5.311264    0.082770   -0.581847
  33 O     8.0000    0    15.999    2.897706   -0.193130   -1.422586
  34 H     1.0000    0     1.008    6.328126   -3.686856   -1.586047
  35 Cl   17.0000    0    35.453   11.565691   -4.074250   -0.329757
  36 H     1.0000    0     1.008   12.232008    0.904234    1.544662
  37 H     1.0000    0     1.008    9.217517    4.474116    1.941505
  38 H     1.0000    0     1.008    4.945791    6.160696    0.801622
  39 H     1.0000    0     1.008    0.825432    0.441818    1.806578

--------------------------------
INTERNAL COORDINATES (ANGSTROEM)
--------------------------------
 O      0   0   0     0.000000000000     0.00000000     0.00000000
 C      1   0   0     1.404525108355     0.00000000     0.00000000
 O      2   1   0     1.403798885168   106.67470913     0.00000000
 C      3   2   1     1.422606438900   116.50505733   187.71678885
 C      4   3   2     1.533173000675   110.77912018    51.50122767
 O      5   4   3     1.409718461254   108.41067501   186.21610104
 H      6   5   4     0.964442045952   106.82585079   172.93278465
 C      5   4   3     1.515291080948   112.43840648   310.02945633
 O      8   5   4     1.415978884023   106.70207903   174.49134086
 H      9   8   5     0.963981415796   107.40590151   186.94884405
 C      8   5   4     1.511264510269   109.19818987    53.72467876
 O     11   8   5     1.404419616781   107.94849893   183.29431019
 H     12  11   8     0.971460580775   109.45837893   176.02048783
 H     11   8   5     1.098071290946   109.33998281    61.83681174
 H      8   5   4     1.093718784697   109.75300142   294.18185580
 H      5   4   3     1.098050080825   107.33480374    67.27988377
 C      4   3   2     1.516999119973   112.90728775   280.85241757
 O     17   4   3     1.419483177075   110.73443649    64.86849011
 H     18  17   4     0.960005510401   109.15065987   163.33742186
 H     17   4   3     1.094929066196   107.73234309   304.19572268
 H     17   4   3     1.092299688730   107.62356946   186.47331083
 H      4   3   2     1.092333969077   104.48621080   166.76205745
 H      2   1   3     1.095040734402   110.21471967   120.92165118
 C      1   2   3     1.364042803581   119.11926526   250.09938992
 C     24   1   2     1.540580585364   108.68385838   241.19673474
 O     25  24   1     1.209432222160   121.95462967    29.07544068
 N     25  24   1     1.355267652532   114.31976050   206.16145505
 C     27  25  24     1.401132152939   122.95286734     4.14049766
 C     28  27  25     1.385452565049   122.54794248   192.33948289
 C     29  28  27     1.386237187497   120.27069897   182.81727892
 C     30  29  28     1.385736349383   119.24452985   359.59480931
 C     31  30  29     1.386166357260   121.31081166   359.65729446
 C     32  31  30     1.383102866746   118.94123616     0.49127085
 O     33  32  31     1.360327846513   119.30722491   177.32285646
 H     32  31  30     1.080678199095   121.59493185   180.03107644
 Cl    31  30  29     1.730677480064   119.51957223   180.00599177
 H     30  29  28     1.080179619323   120.72768742   179.59182668
 H     29  28  27     1.082983684088   119.61825871     2.06773930
 H     27  25  24     1.009993257403   116.94749385   184.71693653
 H     24   1   2     1.100083005959   111.85757991     0.20089755

---------------------------
INTERNAL COORDINATES (A.U.)
---------------------------
 O      0   0   0     0.000000000000     0.00000000     0.00000000
 C      1   0   0     2.654167803007     0.00000000     0.00000000
 O      2   1   0     2.652795440072   106.67470913     0.00000000
 C      3   2   1     2.688336565874   116.50505733   187.71678885
 C      4   3   2     2.897277087199   110.77912018    51.50122767
 O      5   4   3     2.663981817703   108.41067501   186.21610104
 H      6   5   4     1.822531338888   106.82585079   172.93278465
 C      5   4   3     2.863485156165   112.43840648   310.02945633
 O      8   5   4     2.675812302220   106.70207903   174.49134086
 H      9   8   5     1.821660874044   107.40590151   186.94884405
 C      8   5   4     2.855876040324   109.19818987    53.72467876
 O     11   8   5     2.653968452823   107.94849893   183.29431019
 H     12  11   8     1.835794447565   109.45837893   176.02048783
 H     11   8   5     2.075054015409   109.33998281    61.83681174
 H      8   5   4     2.066828970603   109.75300142   294.18185580
 H      5   4   3     2.075013934090   107.33480374    67.27988377
 C      4   3   2     2.866712882149   112.90728775   280.85241757
 O     17   4   3     2.682434456381   110.73443649    64.86849011
 H     18  17   4     1.814147501713   109.15065987   163.33742186
 H     17   4   3     2.069116071180   107.73234309   304.19572268
 H     17   4   3     2.064147267867   107.62356946   186.47331083
 H      4   3   2     2.064212048335   104.48621080   166.76205745
 H      2   1   3     2.069327093508   110.21471967   120.92165118
 C      1   2   3     2.577667333713   119.11926526   250.09938992
 C     24   1   2     2.911275393574   108.68385838   241.19673474
 O     25  24   1     2.285495677423   121.95462967    29.07544068
 N     25  24   1     2.561084701448   114.31976050   206.16145505
 C     27  25  24     2.647756046487   122.95286734     4.14049766
 C     28  27  25     2.618125919481   122.54794248   192.33948289
 C     29  28  27     2.619608641027   120.27069897   182.81727892
 C     30  29  28     2.618662194153   119.24452985   359.59480931
 C     31  30  29     2.619474791277   121.31081166   359.65729446
 C     32  31  30     2.613685633191   118.94123616     0.49127085
 O     33  32  31     2.570647082257   119.30722491   177.32285646
 H     32  31  30     2.042185835189   121.59493185   180.03107644
 Cl    31  30  29     3.270506463466   119.51957223   180.00599177
 H     30  29  28     2.041243655963   120.72768742   179.59182668
 H     29  28  27     2.046542570431   119.61825871     2.06773930
 H     27  25  24     1.908610653599   116.94749385   184.71693653
 H     24   1   2     2.078855605844   111.85757991     0.20089755

---------------------
BASIS SET INFORMATION
---------------------
There are 5 groups of distinct atoms

 Group   1 Type O   : 11s6p2d1f contracted to 5s3p2d1f pattern {62111/411/11/1}
 Group   2 Type C   : 11s6p2d1f contracted to 5s3p2d1f pattern {62111/411/11/1}
 Group   3 Type H   : 5s1p contracted to 3s1p pattern {311/1}
 Group   4 Type N   : 11s6p2d1f contracted to 5s3p2d1f pattern {62111/411/11/1}
 Group   5 Type Cl  : 14s9p3d1f contracted to 5s5p2d1f pattern {73211/51111/21/1}

Atom   0O    basis set group =>   1
Atom   1C    basis set group =>   2
Atom   2O    basis set group =>   1
Atom   3C    basis set group =>   2
Atom   4C    basis set group =>   2
Atom   5O    basis set group =>   1
Atom   6H    basis set group =>   3
Atom   7C    basis set group =>   2
Atom   8O    basis set group =>   1
Atom   9H    basis set group =>   3
Atom  10C    basis set group =>   2
Atom  11O    basis set group =>   1
Atom  12H    basis set group =>   3
Atom  13H    basis set group =>   3
Atom  14H    basis set group =>   3
Atom  15H    basis set group =>   3
Atom  16C    basis set group =>   2
Atom  17O    basis set group =>   1
Atom  18H    basis set group =>   3
Atom  19H    basis set group =>   3
Atom  20H    basis set group =>   3
Atom  21H    basis set group =>   3
Atom  22H    basis set group =>   3
Atom  23C    basis set group =>   2
Atom  24C    basis set group =>   2
Atom  25O    basis set group =>   1
Atom  26N    basis set group =>   4
Atom  27C    basis set group =>   2
Atom  28C    basis set group =>   2
Atom  29C    basis set group =>   2
Atom  30C    basis set group =>   2
Atom  31C    basis set group =>   2
Atom  32C    basis set group =>   2
Atom  33O    basis set group =>   1
Atom  34H    basis set group =>   3
Atom  35Cl   basis set group =>   5
Atom  36H    basis set group =>   3
Atom  37H    basis set group =>   3
Atom  38H    basis set group =>   3
Atom  39H    basis set group =>   3
---------------------------------
AUXILIARY/J BASIS SET INFORMATION
---------------------------------
There are 5 groups of distinct atoms

 Group   1 Type O   : 12s5p4d2f1g contracted to 6s4p3d1f1g pattern {711111/2111/211/2/1}
 Group   2 Type C   : 12s5p4d2f1g contracted to 6s4p3d1f1g pattern {711111/2111/211/2/1}
 Group   3 Type H   : 5s2p1d contracted to 3s1p1d pattern {311/2/1}
 Group   4 Type N   : 12s5p4d2f1g contracted to 6s4p3d1f1g pattern {711111/2111/211/2/1}
 Group   5 Type Cl  : 14s5p5d2f1g contracted to 8s4p3d1f1g pattern {71111111/2111/311/2/1}

Atom   0O    basis set group =>   1
Atom   1C    basis set group =>   2
Atom   2O    basis set group =>   1
Atom   3C    basis set group =>   2
Atom   4C    basis set group =>   2
Atom   5O    basis set group =>   1
Atom   6H    basis set group =>   3
Atom   7C    basis set group =>   2
Atom   8O    basis set group =>   1
Atom   9H    basis set group =>   3
Atom  10C    basis set group =>   2
Atom  11O    basis set group =>   1
Atom  12H    basis set group =>   3
Atom  13H    basis set group =>   3
Atom  14H    basis set group =>   3
Atom  15H    basis set group =>   3
Atom  16C    basis set group =>   2
Atom  17O    basis set group =>   1
Atom  18H    basis set group =>   3
Atom  19H    basis set group =>   3
Atom  20H    basis set group =>   3
Atom  21H    basis set group =>   3
Atom  22H    basis set group =>   3
Atom  23C    basis set group =>   2
Atom  24C    basis set group =>   2
Atom  25O    basis set group =>   1
Atom  26N    basis set group =>   4
Atom  27C    basis set group =>   2
Atom  28C    basis set group =>   2
Atom  29C    basis set group =>   2
Atom  30C    basis set group =>   2
Atom  31C    basis set group =>   2
Atom  32C    basis set group =>   2
Atom  33O    basis set group =>   1
Atom  34H    basis set group =>   3
Atom  35Cl   basis set group =>   5
Atom  36H    basis set group =>   3
Atom  37H    basis set group =>   3
Atom  38H    basis set group =>   3
Atom  39H    basis set group =>   3


           ************************************************************
           *        Program running with 8 parallel MPI-processes     *
           *              working on a common directory               *
           ************************************************************
------------------------------------------------------------------------------
                             ORCA STARTUP CALCULATIONS
                           -- RI-GTO INTEGRALS CHOSEN --
------------------------------------------------------------------------------
------------------------------------------------------------------------------
                   ___                                                        
                  /   \      - P O W E R E D   B Y -                         
                 /     \                                                     
                 |  |  |   _    _      __       _____    __    __             
                 |  |  |  | |  | |    /  \     |  _  \  |  |  /  |          
                  \  \/   | |  | |   /    \    | | | |  |  | /  /          
                 / \  \   | |__| |  /  /\  \   | |_| |  |  |/  /          
                |  |  |   |  __  | /  /__\  \  |    /   |      \           
                |  |  |   | |  | | |   __   |  |    \   |  |\   \          
                \     /   | |  | | |  |  |  |  | |\  \  |  | \   \       
                 \___/    |_|  |_| |__|  |__|  |_| \__\ |__|  \__/        
                                                                              
                      - O R C A' S   B I G   F R I E N D -                    
                                      &                                       
                       - I N T E G R A L  F E E D E R -                       
                                                                              
 v1 FN, 2020, v2 2021, v3 2022-2024                                           
------------------------------------------------------------------------------


----------------------
SHARK INTEGRAL PACKAGE
----------------------

Number of atoms                             ...     40
Number of basis functions                   ...    846
Number of shells                            ...    330
Maximum angular momentum                    ...      3
Integral batch strategy                     ... SHARK/LIBINT Hybrid
RI-J (if used) integral strategy            ... SPLIT-RIJ (Revised 2003 algorithm where possible)
Printlevel                                  ...      1
Contraction scheme used                     ... SEGMENTED contraction
Prescreening option                         ... SCHWARTZ
   Thresh                                   ... 2.500e-11
   Tcut                                     ... 2.500e-12
   Tpresel                                  ... 2.500e-12 
Coulomb Range Separation                    ... NOT USED
Exchange Range Separation                   ... NOT USED
Multipole approximations                    ... NOT USED
Finite Nucleus Model                        ... NOT USED
CABS basis                                  ... NOT available
Auxiliary Coulomb fitting basis             ... AVAILABLE
   # of basis functions in Aux-J            ...   1354
   # of shells in Aux-J                     ...    442
   Maximum angular momentum in Aux-J        ...      4
Auxiliary J/K fitting basis                 ... NOT available
Auxiliary Correlation fitting basis         ... NOT available
Auxiliary 'external' fitting basis          ... NOT available

Checking pre-screening integrals            ... done (  0.0 sec) Dimension = 330
   => SHARK Basis and OBASIS are compatible. Storing Pre-screening
Shell pair information
Shell pair cut-off parameter TPreSel        ...   2.5e-12
Total number of shell pairs                 ...     54615
Shell pairs after pre-screening             ...     34850
Total number of primitive shell pairs       ...    170826
Primitive shell pairs kept                  ...     71606
          la=0 lb=0:   8833 shell pairs
          la=1 lb=0:  10155 shell pairs
          la=1 lb=1:   2944 shell pairs
          la=2 lb=0:   4891 shell pairs
          la=2 lb=1:   2849 shell pairs
          la=2 lb=2:    693 shell pairs
          la=3 lb=0:   2302 shell pairs
          la=3 lb=1:   1382 shell pairs
          la=3 lb=2:    639 shell pairs
          la=3 lb=3:    162 shell pairs

Checking whether 4 symmetric matrices of dimension 846 fit in memory
:Max Core in MB      =   2000.00
 MB in use           =     45.82
 MB left             =   1954.18
 MB needed           =     10.93
 Data fit in memory  = YES
Calculating RI/J V-Matrix + Cholesky decomp.... done (  0.1 sec)
Calculating Nuclear repulsion               ... done (  0.0 sec) ENN=   2327.019592173340 Eh

Diagonalization of the overlap matrix:
Smallest eigenvalue                        ... 7.530e-06
Time for diagonalization                   ...    0.133 sec
Threshold for overlap eigenvalues          ... 1.000e-07
Number of eigenvalues below threshold      ... 0
Time for construction of square roots      ...    0.075 sec
Total time needed                          ...    0.212 sec

-------------------
DFT GRID GENERATION
-------------------

General Integration Accuracy     IntAcc      ... 4.388
Radial Grid Type                 RadialGrid  ... OptM3 with GC (2021)
Angular Grid (max. ang.)         AngularGrid ... 4 (Lebedev-302)
Angular grid pruning method      GridPruning ... 4 (adaptive)
Weight generation scheme         WeightScheme... mBecke (2022)
Basis function cutoff            BFCut       ... 1.0000e-11
Integration weight cutoff        WCut        ... 1.0000e-14
Partially contracted basis set               ... off
Rotationally invariant grid construction     ... off
Angular grids for H and He will be reduced by one unit

Total number of grid points                  ...   195736
Total number of batches                      ...     3076
Average number of points per batch           ...       63
Average number of grid points per atom       ...     4893

--------------------
COSX GRID GENERATION
--------------------

GRIDX 1
-------
General Integration Accuracy     IntAcc      ... 3.816
Radial Grid Type                 RadialGrid  ... OptM3 with GC (2021)
Angular Grid (max. ang.)         AngularGrid ... 1 (Lebedev-50)
Angular grid pruning method      GridPruning ... 4 (adaptive)
Weight generation scheme         WeightScheme... mBecke (2022)
Basis function cutoff            BFCut       ... 1.0000e-11
Integration weight cutoff        WCut        ... 1.0000e-14
Partially contracted basis set               ... on
Rotationally invariant grid construction     ... off
Angular grids for H and He will be reduced by one unit

Total number of grid points                  ...    25832
Total number of batches                      ...      227
Average number of points per batch           ...      113
Average number of grid points per atom       ...      646
UseSFitting                                  ... on

GRIDX 2
-------
General Integration Accuracy     IntAcc      ... 4.020
Radial Grid Type                 RadialGrid  ... OptM3 with GC (2021)
Angular Grid (max. ang.)         AngularGrid ... 2 (Lebedev-110)
Angular grid pruning method      GridPruning ... 4 (adaptive)
Weight generation scheme         WeightScheme... mBecke (2022)
Basis function cutoff            BFCut       ... 1.0000e-11
Integration weight cutoff        WCut        ... 1.0000e-14
Partially contracted basis set               ... on
Rotationally invariant grid construction     ... off
Angular grids for H and He will be reduced by one unit

Total number of grid points                  ...    54119
Total number of batches                      ...      446
Average number of points per batch           ...      121
Average number of grid points per atom       ...     1353
UseSFitting                                  ... on

GRIDX 3
-------
General Integration Accuracy     IntAcc      ... 4.338
Radial Grid Type                 RadialGrid  ... OptM3 with GC (2021)
Angular Grid (max. ang.)         AngularGrid ... 3 (Lebedev-194)
Angular grid pruning method      GridPruning ... 4 (adaptive)
Weight generation scheme         WeightScheme... mBecke (2022)
Basis function cutoff            BFCut       ... 1.0000e-11
Integration weight cutoff        WCut        ... 1.0000e-14
Partially contracted basis set               ... on
Rotationally invariant grid construction     ... off
Angular grids for H and He will be reduced by one unit

Total number of grid points                  ...   119138
Total number of batches                      ...      954
Average number of points per batch           ...      124
Average number of grid points per atom       ...     2978
UseSFitting                                  ... on
Grids setup in   3.3 sec
Initializing property integral containers    ... done (  0.0 sec)

SHARK setup successfully completed in   4.1 seconds

Maximum memory used throughout the entire STARTUP-calculation: 88.8 MB
[1751491332.314247] [exp-1-08:2111668:0]          mpool.c:43   UCX  WARN  object 0x2a6ff00 was not returned to mpool ucp_requests
[1751491332.314265] [exp-1-08:2111668:0]          mpool.c:43   UCX  WARN  object 0x2a700c0 was not returned to mpool ucp_requests
[1751491332.314272] [exp-1-08:2111668:0]          mpool.c:43   UCX  WARN  object 0x2a70280 was not returned to mpool ucp_requests
[1751491332.314278] [exp-1-08:2111668:0]          mpool.c:43   UCX  WARN  object 0x2a70440 was not returned to mpool ucp_requests
[1751491332.314282] [exp-1-08:2111668:0]          mpool.c:43   UCX  WARN  object 0x2a70600 was not returned to mpool ucp_requests
[1751491332.314285] [exp-1-08:2111668:0]          mpool.c:43   UCX  WARN  object 0x2a707c0 was not returned to mpool ucp_requests
[1751491332.314289] [exp-1-08:2111668:0]          mpool.c:43   UCX  WARN  object 0x2a70980 was not returned to mpool ucp_requests
[1751491332.314292] [exp-1-08:2111668:0]          mpool.c:43   UCX  WARN  object 0x2a70b40 was not returned to mpool ucp_requests
[1751491332.314296] [exp-1-08:2111668:0]          mpool.c:43   UCX  WARN  object 0x2a70d00 was not returned to mpool ucp_requests
[1751491332.314299] [exp-1-08:2111668:0]          mpool.c:43   UCX  WARN  object 0x2a70ec0 was not returned to mpool ucp_requests
[1751491332.314301] [exp-1-08:2111668:0]          mpool.c:43   UCX  WARN  object 0x2a71080 was not returned to mpool ucp_requests
[1751491332.317018] [exp-1-08:2111665:0]          mpool.c:43   UCX  WARN  object 0x2a70f00 was not returned to mpool ucp_requests
[1751491332.317035] [exp-1-08:2111665:0]          mpool.c:43   UCX  WARN  object 0x2a710c0 was not returned to mpool ucp_requests
[1751491332.317040] [exp-1-08:2111665:0]          mpool.c:43   UCX  WARN  object 0x2a71280 was not returned to mpool ucp_requests
[1751491332.317044] [exp-1-08:2111665:0]          mpool.c:43   UCX  WARN  object 0x2a71440 was not returned to mpool ucp_requests
[1751491332.317048] [exp-1-08:2111665:0]          mpool.c:43   UCX  WARN  object 0x2a71600 was not returned to mpool ucp_requests
[1751491332.317052] [exp-1-08:2111665:0]          mpool.c:43   UCX  WARN  object 0x2a717c0 was not returned to mpool ucp_requests
[1751491332.317055] [exp-1-08:2111665:0]          mpool.c:43   UCX  WARN  object 0x2a71980 was not returned to mpool ucp_requests
[1751491332.317059] [exp-1-08:2111665:0]          mpool.c:43   UCX  WARN  object 0x2a71b40 was not returned to mpool ucp_requests
[1751491332.317063] [exp-1-08:2111665:0]          mpool.c:43   UCX  WARN  object 0x2a71d00 was not returned to mpool ucp_requests
[1751491332.317067] [exp-1-08:2111665:0]          mpool.c:43   UCX  WARN  object 0x2a71ec0 was not returned to mpool ucp_requests
[1751491332.317070] [exp-1-08:2111665:0]          mpool.c:43   UCX  WARN  object 0x2a72080 was not returned to mpool ucp_requests
[1751491332.328146] [exp-1-08:2111664:0]          mpool.c:43   UCX  WARN  object 0x2a4f5c0 was not returned to mpool ucp_requests
[1751491332.328156] [exp-1-08:2111664:0]          mpool.c:43   UCX  WARN  object 0x2a4f780 was not returned to mpool ucp_requests
[1751491332.328161] [exp-1-08:2111664:0]          mpool.c:43   UCX  WARN  object 0x2a4f940 was not returned to mpool ucp_requests
[1751491332.328164] [exp-1-08:2111664:0]          mpool.c:43   UCX  WARN  object 0x2a4fb00 was not returned to mpool ucp_requests
[1751491332.328167] [exp-1-08:2111664:0]          mpool.c:43   UCX  WARN  object 0x2a4fcc0 was not returned to mpool ucp_requests
[1751491332.328171] [exp-1-08:2111664:0]          mpool.c:43   UCX  WARN  object 0x2a4fe80 was not returned to mpool ucp_requests
[1751491332.328176] [exp-1-08:2111664:0]          mpool.c:43   UCX  WARN  object 0x2a50040 was not returned to mpool ucp_requests
[1751491332.366843] [exp-1-08:2111666:0]          mpool.c:43   UCX  WARN  object 0x2a6ff00 was not returned to mpool ucp_requests
[1751491332.366863] [exp-1-08:2111666:0]          mpool.c:43   UCX  WARN  object 0x2a700c0 was not returned to mpool ucp_requests
[1751491332.366869] [exp-1-08:2111666:0]          mpool.c:43   UCX  WARN  object 0x2a70280 was not returned to mpool ucp_requests
[1751491332.366881] [exp-1-08:2111666:0]          mpool.c:43   UCX  WARN  object 0x2a70440 was not returned to mpool ucp_requests
[1751491332.366888] [exp-1-08:2111666:0]          mpool.c:43   UCX  WARN  object 0x2a70600 was not returned to mpool ucp_requests
[1751491332.366893] [exp-1-08:2111666:0]          mpool.c:43   UCX  WARN  object 0x2a707c0 was not returned to mpool ucp_requests
[1751491332.366971] [exp-1-08:2111666:0]          mpool.c:43   UCX  WARN  object 0x2a70980 was not returned to mpool ucp_requests
[1751491332.366993] [exp-1-08:2111666:0]          mpool.c:43   UCX  WARN  object 0x2a70b40 was not returned to mpool ucp_requests
[1751491332.367011] [exp-1-08:2111666:0]          mpool.c:43   UCX  WARN  object 0x2a70d00 was not returned to mpool ucp_requests
[1751491332.367029] [exp-1-08:2111666:0]          mpool.c:43   UCX  WARN  object 0x2a70ec0 was not returned to mpool ucp_requests
[1751491332.367047] [exp-1-08:2111666:0]          mpool.c:43   UCX  WARN  object 0x2a71080 was not returned to mpool ucp_requests
[1751491332.367503] [exp-1-08:2111669:0]          mpool.c:43   UCX  WARN  object 0x29ecfc0 was not returned to mpool ucp_requests
[1751491332.367518] [exp-1-08:2111669:0]          mpool.c:43   UCX  WARN  object 0x29ed180 was not returned to mpool ucp_requests
[1751491332.367523] [exp-1-08:2111669:0]          mpool.c:43   UCX  WARN  object 0x29ed340 was not returned to mpool ucp_requests
[1751491332.367527] [exp-1-08:2111669:0]          mpool.c:43   UCX  WARN  object 0x29ed500 was not returned to mpool ucp_requests
[1751491332.367531] [exp-1-08:2111669:0]          mpool.c:43   UCX  WARN  object 0x29ed6c0 was not returned to mpool ucp_requests
[1751491332.367534] [exp-1-08:2111669:0]          mpool.c:43   UCX  WARN  object 0x29ed880 was not returned to mpool ucp_requests
[1751491332.367538] [exp-1-08:2111669:0]          mpool.c:43   UCX  WARN  object 0x29eda40 was not returned to mpool ucp_requests
[1751491332.367541] [exp-1-08:2111669:0]          mpool.c:43   UCX  WARN  object 0x29edc00 was not returned to mpool ucp_requests
[1751491332.367544] [exp-1-08:2111669:0]          mpool.c:43   UCX  WARN  object 0x29eddc0 was not returned to mpool ucp_requests
[1751491332.367548] [exp-1-08:2111669:0]          mpool.c:43   UCX  WARN  object 0x29edf80 was not returned to mpool ucp_requests
[1751491332.372559] [exp-1-08:2111670:0]          mpool.c:43   UCX  WARN  object 0x29ecfc0 was not returned to mpool ucp_requests
[1751491332.372596] [exp-1-08:2111670:0]          mpool.c:43   UCX  WARN  object 0x29ed180 was not returned to mpool ucp_requests
[1751491332.372615] [exp-1-08:2111670:0]          mpool.c:43   UCX  WARN  object 0x29ed340 was not returned to mpool ucp_requests
[1751491332.372632] [exp-1-08:2111670:0]          mpool.c:43   UCX  WARN  object 0x29ed500 was not returned to mpool ucp_requests
[1751491332.372649] [exp-1-08:2111670:0]          mpool.c:43   UCX  WARN  object 0x29ed6c0 was not returned to mpool ucp_requests
[1751491332.372666] [exp-1-08:2111670:0]          mpool.c:43   UCX  WARN  object 0x29ed880 was not returned to mpool ucp_requests
[1751491332.372682] [exp-1-08:2111670:0]          mpool.c:43   UCX  WARN  object 0x29eda40 was not returned to mpool ucp_requests
[1751491332.372699] [exp-1-08:2111670:0]          mpool.c:43   UCX  WARN  object 0x29edc00 was not returned to mpool ucp_requests
[1751491332.372715] [exp-1-08:2111670:0]          mpool.c:43   UCX  WARN  object 0x29eddc0 was not returned to mpool ucp_requests
[1751491332.372732] [exp-1-08:2111670:0]          mpool.c:43   UCX  WARN  object 0x29edf80 was not returned to mpool ucp_requests
[1751491332.373293] [exp-1-08:2111667:0]          mpool.c:43   UCX  WARN  object 0x2a0be40 was not returned to mpool ucp_requests
[1751491332.373305] [exp-1-08:2111667:0]          mpool.c:43   UCX  WARN  object 0x2a0c000 was not returned to mpool ucp_requests
[1751491332.373310] [exp-1-08:2111667:0]          mpool.c:43   UCX  WARN  object 0x2a0c1c0 was not returned to mpool ucp_requests
[1751491332.373313] [exp-1-08:2111667:0]          mpool.c:43   UCX  WARN  object 0x2a0c380 was not returned to mpool ucp_requests
[1751491332.373316] [exp-1-08:2111667:0]          mpool.c:43   UCX  WARN  object 0x2a0c540 was not returned to mpool ucp_requests
[1751491332.373319] [exp-1-08:2111667:0]          mpool.c:43   UCX  WARN  object 0x2a0c700 was not returned to mpool ucp_requests
[1751491332.373322] [exp-1-08:2111667:0]          mpool.c:43   UCX  WARN  object 0x2a0c8c0 was not returned to mpool ucp_requests
[1751491332.373325] [exp-1-08:2111667:0]          mpool.c:43   UCX  WARN  object 0x2a0ca80 was not returned to mpool ucp_requests
[1751491332.373328] [exp-1-08:2111667:0]          mpool.c:43   UCX  WARN  object 0x2a0cc40 was not returned to mpool ucp_requests
[1751491332.373331] [exp-1-08:2111667:0]          mpool.c:43   UCX  WARN  object 0x2a0ce00 was not returned to mpool ucp_requests
[1751491332.373334] [exp-1-08:2111667:0]          mpool.c:43   UCX  WARN  object 0x2a0cfc0 was not returned to mpool ucp_requests


           ************************************************************
           *        Program running with 8 parallel MPI-processes     *
           *              working on a common directory               *
           ************************************************************
-------------------------------------------------------------------------------
                                 ORCA GUESS
                   Start orbitals & Density for SCF / CASSCF
-------------------------------------------------------------------------------

------------
SCF SETTINGS
------------
Hamiltonian:
 Density Functional     Method          .... DFT(GTOs)
 Exchange Functional    Exchange        .... B88
   X-Alpha parameter    XAlpha          ....  0.666667
   Becke's b parameter  XBeta           ....  0.004200
 Correlation Functional Correlation     .... LYP
 LDA part of GGA corr.  LDAOpt          .... VWN-5
 Gradients option       PostSCFGGA      .... off
 Hybrid DFT is turned on
   Fraction HF Exchange ScalHFX         ....  0.200000
   Scaling of DF-GGA-X  ScalDFX         ....  0.720000
   Scaling of DF-GGA-C  ScalDFC         ....  0.810000
   Scaling of DF-LDA-C  ScalLDAC        ....  1.000000
   Perturbative correction              ....  0.000000
   NL short-range parameter             ....  4.800000
 RI-approximation to the Coulomb term is turned on
   Number of AuxJ basis functions       .... 1354
   RIJ-COSX (HFX calculated with COS-X)).... on


General Settings:
 Integral files         IntName         .... B3
 Hartree-Fock type      HFTyp           .... RHF
 Total Charge           Charge          ....    0
 Multiplicity           Mult            ....    1
 Number of Electrons    NEL             ....  188
 Basis Dimension        Dim             ....  846
 Nuclear Repulsion      ENuc            ....   2327.0195921733 Eh

Convergence Acceleration:
 AO-DIIS                CNVDIIS         .... on
   Start iteration      DIISMaxIt       ....    12
   Startup error        DIISStart       ....  0.200000
   # of expansion vecs  DIISMaxEq       ....     5
   Bias factor          DIISBfac        ....   1.050
   Max. coefficient     DIISMaxC        ....  10.000
 MO-DIIS                CNVKDIIS        .... off
 Trust-Rad. Augm. Hess. CNVTRAH         .... auto
   Auto Start mean grad. ratio tolernc. ....  1.125000
   Auto Start start iteration           ....    50
   Auto Start num. interpolation iter.  ....    10
   Max. Number of Micro iterations      ....    24
   Max. Number of Macro iterations      .... Maxiter - #DIIS iter
   Number of Davidson start vectors     ....     2
   Converg. threshold    (grad. norm)   ....   1.000e-05
   Grad. Scal. Fac. for Micro threshold ....   0.100
   Minimum threshold for Micro iter.    ....   1.000e-02
   NR start threshold (gradient norm)   ....   1.000e-04
   Initial trust radius                 ....   0.400
   Minimum AH scaling param. (alpha)    ....   1.000
   Maximum AH scaling param. (alpha)    .... 1000.000
   Quad. conv. algorithm                .... NR
   White noise on init. David. guess    .... on
   Maximum white noise                  ....   0.010
   Pseudo random numbers                .... off
   Inactive MOs                         .... canonical
   Orbital update algorithm             .... Taylor
   Preconditioner                       .... Diag
   Full preconditioner red. dimension   ....   250
 SOSCF                 CNVSOSCF           .... on
   Start iteration     SOSCFMaxIt         ....   150
   Startup grad/error  SOSCFStart         ....  0.003300
   Hessian update      SOSCFHessUp        .... L-BFGS
   Autom. constraints  SOSCFAutoConstrain .... off
 Level Shifting         CNVShift        .... on
   Level shift para.    LevelShift      ....    0.2500
   Turn off err/grad.   ShiftErr        ....    0.0010
 Zerner damping         CNVZerner       .... off
 Static damping         CNVDamp         .... on
   Fraction old density DampFac         ....    0.7000
   Max. Damping (<1)    DampMax         ....    0.9800
   Min. Damping (>=0)   DampMin         ....    0.0000
   Turn off err/grad.   DampErr         ....    0.1000

SCF Procedure:
 Maximum # iterations   MaxIter         ....   125
 SCF integral mode      SCFMode         .... Direct
   Integral package                     .... SHARK and LIBINT hybrid scheme
 Reset frequency        DirectResetFreq ....    20
 Integral Threshold     Thresh          ....  2.500e-11 Eh
 Primitive CutOff       TCut            ....  2.500e-12 Eh

Convergence Tolerance:
 Convergence Check Mode ConvCheckMode   .... Total+1el-Energy
 Convergence forced     ConvForced      .... 0
 Energy Change          TolE            ....  1.000e-08 Eh
 1-El. energy change                    ....  1.000e-05 Eh
 Orbital Gradient       TolG            ....  1.000e-05
 Orbital Rotation angle TolX            ....  1.000e-05
 DIIS Error             TolErr          ....  5.000e-07

------------------------------
INITIAL GUESS: MODEL POTENTIAL
------------------------------
Loading Hartree-Fock densities                     ... done
Calculating cut-offs                               ... done
Initializing the effective Hamiltonian             ... done
Setting up the integral package (SHARK)            ... done
Starting the Coulomb interaction                   ... done (   0.6 sec)
Making the grid                                    ... done (   0.4 sec)
Mapping shells                                     ... done
Starting the XC term evaluation                    ... done (   0.3 sec)
  promolecular density results
     # of electrons  =    187.987116464
     EX              =   -176.657991425
     EC              =     -6.720172412
     EX+EC           =   -183.378163837
Transforming the Hamiltonian                       ... done (   0.1 sec)
Diagonalizing the Hamiltonian                      ... done (   0.1 sec)
Back transforming the eigenvectors                 ... done (   0.0 sec)
Now organizing SCF variables                       ... done
                      ------------------
                      INITIAL GUESS DONE (   1.6 sec)
                      ------------------
             **** ENERGY FILE WAS UPDATED (B3.en.tmp) ****
Finished Guess after   2.2 sec
Maximum memory used throughout the entire GUESS-calculation: 70.5 MB


           ************************************************************
           *        Program running with 8 parallel MPI-processes     *
           *              working on a common directory               *
           ************************************************************

-------------------------------------------------------------------------------------------
                                      ORCA LEAN-SCF
                              memory conserving SCF solver
-------------------------------------------------------------------------------------------

----------------------------------------D-I-I-S--------------------------------------------
Iteration    Energy (Eh)           Delta-E    RMSDP     MaxDP     DIISErr   Damp  Time(sec)
-------------------------------------------------------------------------------------------
               ***  Starting incremental Fock matrix formation  ***
    1    -1658.9873664524384367     0.00e+00  4.49e-03  2.41e-01  3.00e-01  0.700  14.9
    2    -1659.3031529611030237    -3.16e-01  3.76e-03  2.16e-01  1.13e-01  0.700   7.6
                               ***Turning on AO-DIIS***
    3    -1659.4156511495521045    -1.12e-01  1.36e-03  6.00e-02  4.29e-02  0.700   7.1
    4    -1659.4874485487248421    -7.18e-02  1.69e-03  3.08e-02  1.92e-02  0.000   6.7
    5    -1659.6491772018785014    -1.62e-01  8.80e-04  4.69e-02  5.20e-03  0.000   6.9
                              *** Initializing SOSCF ***
---------------------------------------S-O-S-C-F--------------------------------------
Iteration    Energy (Eh)           Delta-E    RMSDP     MaxDP     MaxGrad    Time(sec)
--------------------------------------------------------------------------------------
    6    -1659.6497760930647019    -5.99e-04  2.66e-04  1.51e-02  3.22e-03     6.6
               *** Restarting incremental Fock matrix formation ***
    7    -1659.6498120868168371    -3.60e-05  1.79e-04  7.73e-03  3.95e-04    14.8
    8    -1659.6497801137752504     3.20e-05  5.95e-05  3.05e-03  8.17e-04    10.2
    9    -1659.6498256877712265    -4.56e-05  1.57e-05  6.06e-04  6.04e-05     8.8
   10    -1659.6498250298386665     6.58e-07  1.16e-05  5.17e-04  1.41e-04     7.9
   11    -1659.6498259508225601    -9.21e-07  3.56e-06  1.12e-04  1.16e-05     7.2
   12    -1659.6498259280865568     2.27e-08  1.84e-06  7.69e-05  1.52e-05     6.2
   13    -1659.6498259380559830    -9.97e-09  2.29e-06  6.80e-05  2.11e-06     5.6
                 **** Energy Check signals convergence ****

               *****************************************************
               *                     SUCCESS                       *
               *           SCF CONVERGED AFTER  13 CYCLES          *
               *****************************************************

Recomputing exchange energy using gridx3       ... done (   24.716 sec)
Old exchange energy                            :    -35.722891479 Eh
New exchange energy                            :    -35.722881404 Eh
Exchange energy change after final integration :      0.000010075 Eh
Total energy after final integration           :  -1659.649815845 Eh
             **** ENERGY FILE WAS UPDATED (B3.en.tmp) ****

----------------
TOTAL SCF ENERGY
----------------

Total Energy       :      -1659.64981584503516 Eh          -45161.36745 eV

Components:
Nuclear Repulsion  :       2327.01959217333979 Eh           63321.42230 eV
Electronic Energy  :      -3986.66941809320633 Eh         -108482.79002 eV
One Electron Energy:      -6905.16517605036188 Eh         -187899.09705 eV
Two Electron Energy:       2918.49575795715555 Eh           79416.30702 eV

Virial components:
Potential Energy   :      -3314.22407297185237 Eh          -90184.62192 eV
Kinetic Energy     :       1654.57425712681697 Eh           45023.25447 eV
Virial Ratio       :          2.00306759197803

DFT components:
N(Alpha)           :       94.000033185899 electrons
N(Beta)            :       94.000033185899 electrons
N(Total)           :      188.000066371799 electrons
E(X)               :     -142.066441896712 Eh       
E(C)               :       -7.882313661699 Eh       
E(XC)              :     -149.948755558411 Eh       

---------------
SCF CONVERGENCE
---------------

  Last Energy change         ...    9.9694e-09  Tolerance :   1.0000e-08
  Last MAX-Density change    ...    6.7995e-05  Tolerance :   1.0000e-07
  Last RMS-Density change    ...    2.2934e-06  Tolerance :   5.0000e-09
  Last DIIS Error            ...    3.2248e-03  Tolerance :   5.0000e-07
  Last Orbital Gradient      ...    2.1107e-06  Tolerance :   1.0000e-05
  Last Orbital Rotation      ...    1.5500e-06  Tolerance :   1.0000e-05


----------------
ORBITAL ENERGIES
----------------

  NO   OCC          E(Eh)            E(eV) 
   0   2.0000    -101.532524     -2762.8404 
   1   2.0000     -19.181516      -521.9556 
   2   2.0000     -19.161431      -521.4090 
   3   2.0000     -19.137554      -520.7593 
   4   2.0000     -19.135231      -520.6961 
   5   2.0000     -19.129632      -520.5438 
   6   2.0000     -19.124435      -520.4023 
   7   2.0000     -19.123877      -520.3872 
   8   2.0000     -19.115735      -520.1656 
   9   2.0000     -14.386594      -391.4791 
  10   2.0000     -10.311297      -280.5847 
  11   2.0000     -10.302449      -280.3439 
  12   2.0000     -10.274746      -279.5901 
  13   2.0000     -10.260383      -279.1992 
  14   2.0000     -10.246714      -278.8273 
  15   2.0000     -10.245353      -278.7902 
  16   2.0000     -10.229358      -278.3550 
  17   2.0000     -10.219974      -278.0996 
  18   2.0000     -10.218520      -278.0601 
  19   2.0000     -10.213615      -277.9266 
  20   2.0000     -10.210980      -277.8549 
  21   2.0000     -10.205679      -277.7106 
  22   2.0000     -10.198595      -277.5179 
  23   2.0000     -10.197867      -277.4981 
  24   2.0000      -9.464795      -257.5502 
  25   2.0000      -7.226236      -196.6359 
  26   2.0000      -7.217904      -196.4092 
  27   2.0000      -7.217567      -196.4000 
  28   2.0000      -1.130757       -30.7695 
  29   2.0000      -1.085613       -29.5410 
  30   2.0000      -1.076921       -29.3045 
  31   2.0000      -1.047053       -28.4918 
  32   2.0000      -1.038085       -28.2477 
  33   2.0000      -1.027478       -27.9591 
  34   2.0000      -1.022902       -27.8346 
  35   2.0000      -1.008077       -27.4312 
  36   2.0000      -0.978378       -26.6230 
  37   2.0000      -0.907574       -24.6963 
  38   2.0000      -0.853123       -23.2147 
  39   2.0000      -0.799380       -21.7522 
  40   2.0000      -0.784786       -21.3551 
  41   2.0000      -0.775034       -21.0897 
  42   2.0000      -0.757651       -20.6167 
  43   2.0000      -0.733326       -19.9548 
  44   2.0000      -0.696243       -18.9457 
  45   2.0000      -0.672478       -18.2991 
  46   2.0000      -0.647706       -17.6250 
  47   2.0000      -0.641981       -17.4692 
  48   2.0000      -0.628873       -17.1125 
  49   2.0000      -0.602973       -16.4077 
  50   2.0000      -0.590672       -16.0730 
  51   2.0000      -0.574411       -15.6305 
  52   2.0000      -0.563988       -15.3469 
  53   2.0000      -0.551685       -15.0121 
  54   2.0000      -0.545848       -14.8533 
  55   2.0000      -0.531658       -14.4672 
  56   2.0000      -0.523924       -14.2567 
  57   2.0000      -0.509178       -13.8554 
  58   2.0000      -0.508155       -13.8276 
  59   2.0000      -0.491855       -13.3841 
  60   2.0000      -0.490726       -13.3533 
  61   2.0000      -0.487057       -13.2535 
  62   2.0000      -0.469685       -12.7808 
  63   2.0000      -0.464582       -12.6419 
  64   2.0000      -0.460342       -12.5266 
  65   2.0000      -0.458393       -12.4735 
  66   2.0000      -0.453576       -12.3424 
  67   2.0000      -0.441326       -12.0091 
  68   2.0000      -0.436781       -11.8854 
  69   2.0000      -0.427659       -11.6372 
  70   2.0000      -0.416067       -11.3218 
  71   2.0000      -0.410083       -11.1589 
  72   2.0000      -0.406383       -11.0583 
  73   2.0000      -0.400723       -10.9042 
  74   2.0000      -0.389917       -10.6102 
  75   2.0000      -0.379358       -10.3229 
  76   2.0000      -0.372090       -10.1251 
  77   2.0000      -0.367482        -9.9997 
  78   2.0000      -0.362607        -9.8670 
  79   2.0000      -0.357942        -9.7401 
  80   2.0000      -0.352323        -9.5872 
  81   2.0000      -0.338725        -9.2172 
  82   2.0000      -0.324771        -8.8375 
  83   2.0000      -0.322049        -8.7634 
  84   2.0000      -0.321462        -8.7474 
  85   2.0000      -0.316631        -8.6160 
  86   2.0000      -0.294167        -8.0047 
  87   2.0000      -0.291329        -7.9275 
[...]
 79:   1270.48   0.002178   11.01  0.000535  (-0.018314 -0.008694  0.011131)
 80:   1279.72   0.000368    1.86  0.000090  ( 0.008179  0.002087  0.004292)
 81:   1294.96   0.001109    5.60  0.000267  ( 0.008215 -0.007544 -0.011950)
 82:   1311.44   0.003005   15.18  0.000715  (-0.018865  0.018483  0.004181)
 83:   1324.41   0.005317   26.87  0.001253  (-0.026436  0.023481 -0.001623)
 84:   1339.55   0.037387  188.94  0.008710  (-0.093233 -0.003045 -0.002870)
 85:   1347.04   0.031368  158.52  0.007267  ( 0.085070 -0.004832  0.002601)
 86:   1354.28   0.002213   11.18  0.000510  ( 0.021946 -0.005156  0.001281)
 87:   1359.22   0.013602   68.74  0.003123  (-0.050854  0.023129  0.001287)
 88:   1382.31   0.001598    8.08  0.000361  (-0.018761  0.000868 -0.002837)
 89:   1385.42   0.006156   31.11  0.001387  (-0.013131 -0.030608 -0.016651)
 90:   1396.05   0.001540    7.78  0.000344  ( 0.011969  0.009497  0.010531)
 91:   1405.04   0.002219   11.21  0.000493  (-0.002043 -0.019317 -0.010748)
 92:   1418.90   0.005687   28.74  0.001251  (-0.033454 -0.010358  0.004922)
 93:   1434.24   0.003179   16.07  0.000692  ( 0.022739  0.011949 -0.005646)
 94:   1438.22   0.001003    5.07  0.000218  (-0.001200  0.010620 -0.010166)
 95:   1448.62   0.000708    3.58  0.000153  ( 0.007300 -0.004882  0.008688)
 96:   1454.11   0.000835    4.22  0.000179  (-0.007319  0.010030 -0.005009)
 97:   1462.85   0.004087   20.65  0.000872  ( 0.024678  0.012711  0.010065)
 98:   1490.56   0.003119   15.76  0.000653  (-0.022406  0.012287  0.000270)
 99:   1497.94   0.001830    9.25  0.000381  ( 0.000831 -0.012469  0.015006)
100:   1533.29   0.056096  283.48  0.011417  ( 0.097984 -0.041869  0.007937)
101:   1633.39   0.002966   14.99  0.000567  (-0.016651 -0.015668 -0.006627)
102:   1647.48   0.000605    3.06  0.000115  ( 0.009821  0.004041  0.001319)
103:   1760.90   0.151857  767.42  0.026912  ( 0.144201 -0.078056  0.005006)
104:   2963.93   0.003983   20.13  0.000419  ( 0.007633 -0.001399 -0.018950)
105:   2986.32   0.003609   18.24  0.000377  (-0.005345 -0.009852  0.015858)
106:   3001.25   0.004937   24.95  0.000513  ( 0.001130 -0.002617  0.022478)
107:   3005.67   0.008512   43.02  0.000884  ( 0.010913 -0.027217 -0.004891)
108:   3043.24   0.003921   19.81  0.000402  ( 0.010936  0.007170  0.015200)
109:   3057.96   0.003103   15.68  0.000317  (-0.002278  0.014981 -0.009330)
110:   3059.96   0.006896   34.85  0.000703  ( 0.004700  0.011320  0.023516)
111:   3068.86   0.005233   26.44  0.000532  ( 0.020421  0.010498  0.002204)
112:   3175.07   0.001154    5.83  0.000113  ( 0.000600 -0.010429 -0.002068)
113:   3213.89   0.000068    0.34  0.000007  (-0.002393 -0.000732 -0.000580)
114:   3215.51   0.000138    0.70  0.000013  (-0.000141 -0.003533 -0.000938)
115:   3576.66   0.011835   59.81  0.001033  (-0.017433 -0.026911 -0.002119)
116:   3602.42   0.118600  599.36  0.010274  (-0.098823 -0.021802  0.005700)
117:   3775.30   0.010932   55.25  0.000904  (-0.026055  0.014818  0.002285)
118:   3783.14   0.010213   51.61  0.000842  ( 0.001414 -0.027696 -0.008567)
119:   3825.24   0.008308   41.99  0.000678  ( 0.007145  0.007075 -0.024014)

* The epsilon (eps) is given for a Dirac delta lineshape.
** The dipole moment derivative (T) already includes vibrational overlap.

The first frequency considered to be a vibration is 6
The total number of vibrations considered is 114


--------------------------
THERMOCHEMISTRY AT 298.15K
--------------------------

Temperature         ...   298.15 K
Pressure            ...     1.00 atm
Total Mass          ...   361.73 AMU
Quasi RRHO          ...     True
Cut-Off Frequency   ...     1.00 cm^-1

Throughout the following assumptions are being made:
  (1) The electronic state is orbitally nondegenerate
  (2) There are no thermally accessible electronically excited states
  (3) Hindered rotations indicated by low frequency modes are not
      treated as such but are treated as vibrations and this may
      cause some error
  (4) All equations used are the standard statistical mechanics
      equations for an ideal gas
  (5) All vibrations are strictly harmonic

freq.      14.30  E(vib)   ...       0.57 
freq.      24.17  E(vib)   ...       0.56 
freq.      39.49  E(vib)   ...       0.54 
freq.      59.68  E(vib)   ...       0.51 
freq.      75.81  E(vib)   ...       0.49 
freq.      83.92  E(vib)   ...       0.48 
freq.     102.49  E(vib)   ...       0.46 
freq.     117.34  E(vib)   ...       0.44 
freq.     131.39  E(vib)   ...       0.42 
freq.     146.52  E(vib)   ...       0.41 
freq.     162.67  E(vib)   ...       0.39 
freq.     194.68  E(vib)   ...       0.36 
freq.     211.46  E(vib)   ...       0.34 
freq.     223.49  E(vib)   ...       0.33 
freq.     226.39  E(vib)   ...       0.33 
freq.     233.83  E(vib)   ...       0.32 
freq.     264.59  E(vib)   ...       0.29 
freq.     282.31  E(vib)   ...       0.28 
freq.     305.77  E(vib)   ...       0.26 
freq.     328.25  E(vib)   ...       0.24 
freq.     347.02  E(vib)   ...       0.23 
freq.     356.86  E(vib)   ...       0.22 
freq.     361.31  E(vib)   ...       0.22 
freq.     380.26  E(vib)   ...       0.21 
freq.     397.72  E(vib)   ...       0.20 
freq.     400.29  E(vib)   ...       0.19 
freq.     416.86  E(vib)   ...       0.18 
freq.     426.78  E(vib)   ...       0.18 
freq.     454.50  E(vib)   ...       0.16 
freq.     474.86  E(vib)   ...       0.15 
freq.     492.77  E(vib)   ...       0.14 
freq.     529.86  E(vib)   ...       0.13 
freq.     534.21  E(vib)   ...       0.13 
freq.     547.55  E(vib)   ...       0.12 
freq.     581.72  E(vib)   ...       0.11 
freq.     597.32  E(vib)   ...       0.10 
freq.     607.13  E(vib)   ...       0.10 
freq.     609.99  E(vib)   ...       0.10 
freq.     619.94  E(vib)   ...       0.09 
freq.     645.12  E(vib)   ...       0.09 
freq.     661.17  E(vib)   ...       0.08 
freq.     721.90  E(vib)   ...       0.07 
freq.     731.87  E(vib)   ...       0.06 
freq.     749.01  E(vib)   ...       0.06 
freq.     803.51  E(vib)   ...       0.05 
freq.     815.85  E(vib)   ...       0.05 
freq.     819.21  E(vib)   ...       0.05 
freq.     865.63  E(vib)   ...       0.04 
freq.     897.44  E(vib)   ...       0.03 
freq.     927.72  E(vib)   ...       0.03 
freq.     931.49  E(vib)   ...       0.03 
freq.     938.66  E(vib)   ...       0.03 
freq.     949.04  E(vib)   ...       0.03 
freq.     980.12  E(vib)   ...       0.02 
freq.    1014.12  E(vib)   ...       0.02 
freq.    1025.92  E(vib)   ...       0.02 
freq.    1038.17  E(vib)   ...       0.02 
freq.    1055.28  E(vib)   ...       0.02 
freq.    1095.95  E(vib)   ...       0.02 
freq.    1096.39  E(vib)   ...       0.02 
freq.    1104.95  E(vib)   ...       0.02 
freq.    1113.21  E(vib)   ...       0.01 
freq.    1118.05  E(vib)   ...       0.01 
freq.    1125.66  E(vib)   ...       0.01 
freq.    1137.30  E(vib)   ...       0.01 
freq.    1144.61  E(vib)   ...       0.01 
freq.    1156.96  E(vib)   ...       0.01 
freq.    1210.14  E(vib)   ...       0.01 
freq.    1221.81  E(vib)   ...       0.01 
freq.    1236.06  E(vib)   ...       0.01 
freq.    1246.24  E(vib)   ...       0.01 
freq.    1263.10  E(vib)   ...       0.01 
freq.    1265.34  E(vib)   ...       0.01 
freq.    1270.48  E(vib)   ...       0.01 
freq.    1279.72  E(vib)   ...       0.01 
freq.    1294.96  E(vib)   ...       0.01 
freq.    1311.44  E(vib)   ...       0.01 
freq.    1324.41  E(vib)   ...       0.01 
freq.    1339.55  E(vib)   ...       0.01 
freq.    1347.04  E(vib)   ...       0.01 
freq.    1354.28  E(vib)   ...       0.01 
freq.    1359.22  E(vib)   ...       0.01 
freq.    1382.31  E(vib)   ...       0.01 
freq.    1385.42  E(vib)   ...       0.00 
freq.    1396.05  E(vib)   ...       0.00 
freq.    1405.04  E(vib)   ...       0.00 
freq.    1418.90  E(vib)   ...       0.00 
freq.    1434.24  E(vib)   ...       0.00 
freq.    1438.22  E(vib)   ...       0.00 
freq.    1448.62  E(vib)   ...       0.00 
freq.    1454.11  E(vib)   ...       0.00 
freq.    1462.85  E(vib)   ...       0.00 
freq.    1490.56  E(vib)   ...       0.00 
freq.    1497.94  E(vib)   ...       0.00 
freq.    1533.29  E(vib)   ...       0.00 
freq.    1633.39  E(vib)   ...       0.00 
freq.    1647.48  E(vib)   ...       0.00 
freq.    1760.90  E(vib)   ...       0.00 
freq.    2963.93  E(vib)   ...       0.00 
freq.    2986.32  E(vib)   ...       0.00 
freq.    3001.25  E(vib)   ...       0.00 
freq.    3005.67  E(vib)   ...       0.00 
freq.    3043.24  E(vib)   ...       0.00 
freq.    3057.96  E(vib)   ...       0.00 
freq.    3059.96  E(vib)   ...       0.00 
freq.    3068.86  E(vib)   ...       0.00 
freq.    3175.07  E(vib)   ...       0.00 
freq.    3213.89  E(vib)   ...       0.00 
freq.    3215.51  E(vib)   ...       0.00 
freq.    3576.66  E(vib)   ...       0.00 
freq.    3602.42  E(vib)   ...       0.00 
freq.    3775.30  E(vib)   ...       0.00 
freq.    3783.14  E(vib)   ...       0.00 
freq.    3825.24  E(vib)   ...       0.00 

------------
INNER ENERGY
------------

The inner energy is: U= E(el) + E(ZPE) + E(vib) + E(rot) + E(trans)
    E(el)   - is the total energy from the electronic structure calculation
              = E(kin-el) + E(nuc-el) + E(el-el) + E(nuc-nuc)
    E(ZPE)  - the the zero temperature vibrational energy from the frequency calculation
    E(vib)  - the the finite temperature correction to E(ZPE) due to population
              of excited vibrational states
    E(rot)  - is the rotational thermal energy
    E(trans)- is the translational thermal energy

Summary of contributions to the inner energy U:
Electronic energy                ...  -1659.73597728 Eh
Zero point energy                ...      0.30640755 Eh     192.27 kcal/mol
Thermal vibrational correction   ...      0.01922896 Eh      12.07 kcal/mol
Thermal rotational correction    ...      0.00141627 Eh       0.89 kcal/mol
Thermal translational correction ...      0.00141627 Eh       0.89 kcal/mol
-----------------------------------------------------------------------
Total thermal energy                  -1659.40750823 Eh


Summary of corrections to the electronic energy:
(perhaps to be used in another calculation)
Total thermal correction                  0.02206150 Eh      13.84 kcal/mol
Non-thermal (ZPE) correction              0.30640755 Eh     192.27 kcal/mol
-----------------------------------------------------------------------
Total correction                          0.32846906 Eh     206.12 kcal/mol


--------
ENTHALPY
--------

The enthalpy is H = U + kB*T
                kB is Boltzmann's constant
Total thermal energy              ...  -1659.40750823 Eh 
Thermal Enthalpy correction       ...      0.00094421 Eh       0.59 kcal/mol
-----------------------------------------------------------------------
Total Enthalpy                    ...  -1659.40656402 Eh


Note: Only C1 symmetry has been detected, increase convergence thresholds 
      if your molecule has a higher symmetry. Symmetry factor of 1.0 is   
      used for the rotational entropy correction. 
 

Note: Rotational entropy computed according to Herzberg 
Infrared and Raman Spectra, Chapter V,1, Van Nostrand Reinhold, 1945 
Point Group:  C1, Symmetry Number:   1  
Rotational constants in cm-1:     0.015740     0.003172     0.002756 

Vibrational entropy computed according to the QRRHO of S. Grimme
Chem.Eur.J. 2012 18 9955 using a reference frequency of 100.0 cm-1


-------
ENTROPY
-------

The entropy contributions are T*S = T*(S(el)+S(vib)+S(rot)+S(trans))
     S(el)   - electronic entropy
     S(vib)  - vibrational entropy
     S(rot)  - rotational entropy
     S(trans)- translational entropy
The entropies will be listed as multiplied by the temperature to get
units of energy

Electronic entropy                ...      0.00000000 Eh      0.00 kcal/mol
Vibrational entropy               ...      0.03407335 Eh     21.38 kcal/mol
Rotational entropy                ...      0.01696934 Eh     10.65 kcal/mol
Translational entropy             ...      0.02069220 Eh     12.98 kcal/mol
-----------------------------------------------------------------------
Final entropy term                ...      0.07173489 Eh     45.01 kcal/mol

In case the symmetry of your molecule has not been determined correctly
or in case you have a reason to use a different symmetry number we print 
out the resulting rotational entropy values for sn=1,12:

 non-linear molecules -----------------------------------
|  sn= 1 | S(rot)=       0.01696934 Eh     10.65 kcal/mol|
|  sn= 2 | S(rot)=       0.01631489 Eh     10.24 kcal/mol|
|  sn= 3 | S(rot)=       0.01593206 Eh     10.00 kcal/mol|
|  sn= 4 | S(rot)=       0.01566043 Eh      9.83 kcal/mol|
|  sn= 5 | S(rot)=       0.01544974 Eh      9.69 kcal/mol|
|  sn= 6 | S(rot)=       0.01527760 Eh      9.59 kcal/mol|
|  sn= 7 | S(rot)=       0.01513205 Eh      9.50 kcal/mol|
|  sn= 8 | S(rot)=       0.01500598 Eh      9.42 kcal/mol|
|  sn= 9 | S(rot)=       0.01489477 Eh      9.35 kcal/mol|
|  sn=10 | S(rot)=       0.01479529 Eh      9.28 kcal/mol|
|  sn=11 | S(rot)=       0.01470530 Eh      9.23 kcal/mol|
|  sn=12 | S(rot)=       0.01462314 Eh      9.18 kcal/mol|
 linear molecules ---------------------------------------
|  Dinfh | S(rot)=       0.01089074 Eh      6.83 kcal/mol|
|  Cinfv | S(rot)=       0.01154519 Eh      7.24 kcal/mol|
 --------------------------------------------------------


-------------------
GIBBS FREE ENERGY
-------------------

The Gibbs free energy is G = H - T*S

Total enthalpy                    ...  -1659.40656402 Eh 
Total entropy correction          ...     -0.07173489 Eh    -45.01 kcal/mol
-----------------------------------------------------------------------
Final Gibbs free energy         ...  -1659.47829890 Eh

For completeness - the Gibbs free energy minus the electronic energy
G-E(el)                           ...      0.25767838 Eh    161.70 kcal/mol


Maximum memory used throughout the entire PROP-calculation: 520.9 MB

--------------------------------
SUGGESTED CITATIONS FOR THIS RUN
--------------------------------

Below you find a list of papers that are relevant to this ORCA run
We neither can nor want to force you to cite these papers, but we appreciate if you do
You receive ORCA, which is the product of decades of hard work by many enthusiastic individuals, for free
The only thing we kindly ask in return is that you cite our papers,
We deeply appreciate it, if you show your appreciation for ORCA by not just citing the generic ORCA reference.

Please note that relegating all ORCA citations to the supporting information does *not* help us.
SI sections are not indexed - citations you put there will not count into any citation statistics
But we need these citations in order to attract the funding resources that allow us to do what we are doing

Therefore, if you are a happy ORCA user, please consider citing a few of the papers listed below in the main body of your paper

In addition to the list printed below, the program has created the file B3.bibtex that contains the list in bibtex format
You can import this file easily into all common literature databanks and citation aid programs


List of essential papers. We consider these as the minimum necessary citations

  1. Neese, F.
     Software update: the ORCA program system, version 6.0
     WIRES Comput. Molec. Sci. 2025 15(1), e70019
     doi.org/10.1002/wcms.7019

List of papers to cite with high priority. The work reported in these papers was absolutely
necessary for this run to complete.
Our perspective: the developers of density functionals and basis sets usually get cited in chemistry papers
Good! But without the algorithms to do something with them, the functionals or basis sets would not do anything.
Hence, in our opinion, the algorithm design and method developments papers are equally worthy of getting cited

  1. Neese, F.
     An improvement of the resolution of the identity approximation for the formation of the Coulomb matrix
     J. Comp. Chem. 2003 24(14), 1740-1747
     doi.org/10.1002/jcc.10318
  2. Neese, F.; Wennmohs, F.; Hansen, A.; Becker, U.
     Efficient, approximate and parallel Hartree-Fock and hybrid DFT calculations. A 'chain-of-spheres' algorithm for the Hartree-Fock exchange
     Chem. Phys. 2009 356(1-3), 98-109
     doi.org/10.1016/j.chemphys.2008.10.036
  3. Grimme, S.; Antony, J.; Ehrlich, S.; Krieg, H.
     A consistent and accurate ab initio parametrization of density functional dispersion correction (DFT-D) for the 94 elements H-Pu
     J. Chem. Phys. 2010 132 , 154104
     doi.org/10.1063/1.3382344
  4. Grimme, S.; Ehrlich, S.; Goerigk, L.
     Effect of the damping function in dispersion corrected density functional theory
     J. Comput. Chem. 2011 32(7), 1456-1465
     doi.org/10.1002/jcc.21759
  5. Bykov, D.; Petrenko, T.; Izsak, R.; Kossmann, S.; Becker, U.; Valeev, E.; Neese, F.
     Efficient implementation of the analytic second derivatives of Hartree-Fock and hybrid DFT energies: a detailed analysis of different approximations
     Molec. Phys. 2015 113 , 1961-1977
     doi.org/10.1080/00268976.2015.1025114
  6. Helmich-Paris, B.; de Souza, B.; Neese, F.; Izsák, R.
     An improved chain of spheres for exchange algorithm
     J. Chem. Phys. 2021 155(10), 104109
     doi.org/10.1063/5.0058766
  7. Neese, F.
     The SHARK Integral Generation and Digestion System
     J. Comp. Chem. 2022 44(3), 381
     doi.org/10.1002/jcc.26942

List of suggested additional citations. These are papers that are important in the 'surrounding' of 
of this run, or papers that preceded the highly important papers. If you like your results we are grateful for a citation.

  1. Izsak, R.; Neese, F.
     An overlap fitted chain of spheres exchange method
     J. Chem. Phys. 2011 135 , 144105
     doi.org/10.1063/1.3646921
  2. Izsak, R.; Hansen, A.; Neese, F.
     The resolution of identity and chain of spheres approximations for the LPNO-CCSD singles Fock term
     Molec. Phys. 2012 110 , 2413-2417
     doi.org/10.1080/00268976.2012.687466
  3. Neese, F.
     The ORCA program system
     WIRES Comput. Molec. Sci. 2012 2(1), 73-78
     doi.org/10.1002/wcms.81
  4. Izsak, R.; Neese, F.; Klopper, W.
     Robust fitting techniques in the chain of spheres approximation to the Fock exchange: The role of the complementary space
     J. Chem. Phys. 2013 139 , 
     doi.org/10.1063/1.4819264
  5. Neese, F.
     Software update: the ORCA program system, version 4.0
     WIRES Comput. Molec. Sci. 2018 8(1), 1-6
     doi.org/10.1002/wcms.1327
  6. Neese, F.; Wennmohs, F.; Becker, U.; Riplinger, C.
     The ORCA quantum chemistry program package
     J. Chem. Phys. 2020 152(22), 224108
     doi.org/10.1063/5.0004608
  7. Neese, F.
     Software update: The ORCA program system—Version 5.0
     WIRES Comput. Molec. Sci. 2022 12(1), e1606
     doi.org/10.1002/wcms.1606

List of optional additional citations

  1. Neese, F.
     Approximate second-order SCF convergence for spin unrestricted wavefunctions
     Chem. Phys. Lett. 2000 325(1-3), 93-98
     doi.org/10.1016/s0009-2614(00)00662-x

Timings for individual modules:

Sum of individual times          ...     4629.177 sec (=  77.153 min)
Startup calculation              ...       64.009 sec (=   1.067 min)   1.4 %
SCF iterations                   ...     1396.896 sec (=  23.282 min)  30.2 %
Property integrals               ...      701.416 sec (=  11.690 min)  15.2 %
SCF Response                     ...     1013.323 sec (=  16.889 min)  21.9 %
Property calculations            ...      784.728 sec (=  13.079 min)  17.0 %
SCF Gradient evaluation          ...      668.642 sec (=  11.144 min)  14.4 %
Geometry relaxation              ...        0.162 sec (=   0.003 min)   0.0 %
                             ****ORCA TERMINATED NORMALLY****
TOTAL RUN TIME: 0 days 1 hours 17 minutes 20 seconds 975 msec
